 DBCSR| CPU Multiplication driver                                           XSMM
 DBCSR| Multrec recursion limit                                              512
 DBCSR| Multiplication stack size                                           1000
 DBCSR| Maximum elements for images                                    UNLIMITED
 DBCSR| Multiplicative factor virtual images                                   1
 DBCSR| Use multiplication densification                                       T
 DBCSR| Multiplication size stacks                                             3
 DBCSR| Use memory pool for CPU allocation                                     F
 DBCSR| Number of 3D layers                                               SINGLE
 DBCSR| Use MPI memory allocation                                              F
 DBCSR| Use RMA algorithm                                                      F
 DBCSR| Use Communication thread                                               T
 DBCSR| Communication thread load                                             83
 DBCSR| MPI: My node id                                                        0
 DBCSR| MPI: Number of nodes                                                  12
 DBCSR| OMP: Current number of threads                                         2
 DBCSR| OMP: Max number of threads                                             2
 DBCSR| Split modifier for TAS multiplication algorithm                  1.0E+00

 CP2K| version string:                                       CP2K version 2022.2
 CP2K| source code revision number:                                  git:a95ec40

 GLOBAL| Force Environment number                                              1
 GLOBAL| Basis set file name                                        BASIS_MOLOPT
 GLOBAL| Potential file name                                           POTENTIAL
 GLOBAL| MM Potential file name                                     MM_POTENTIAL
 GLOBAL| Coordinate file name           /nas/stkim1215/1_SAIT/08_DeePMD-kit/11MD
 GLOBAL| Method name                                                        CP2K
 GLOBAL| Project name                                                         SP
 GLOBAL| Run type                                                   ENERGY_FORCE
 GLOBAL| FFT library                                                       FFTW3
 GLOBAL| Diagonalization library                                            ELPA
 GLOBAL| Minimum number of eigenvectors for ELPA usage                        16
 GLOBAL| Orthonormality check for eigenvectors                          DISABLED
 GLOBAL| Matrix multiplication library                                     COSMA
 GLOBAL| All-to-all communication in single precision                          F
 GLOBAL| FFTs using library dependent lengths                                  F
 GLOBAL| Grid backend                                                       AUTO
 GLOBAL| Global print level                                               MEDIUM
 GLOBAL| MPI I/O enabled                                                       T
 GLOBAL| Total number of message passing processes                            12
 GLOBAL| Number of threads for this process                                    2
 GLOBAL| This output is from process                                           0
 GLOBAL| Stack size for threads created by OpenMP (OMP_STACKSIZE)        default
 GLOBAL| CPU model name                Intel(R) Xeon(R) CPU E5-2690 v3 @ 2.60GHz
 GLOBAL| CPUID                                                              1002

 MEMORY| system memory details [Kb]
 MEMORY|                        rank 0           min           max       average
 MEMORY| MemTotal            131661900     131661900     131661900     131661900
 MEMORY| MemFree              95117656      95105640      95119732      95113789
 MEMORY| Buffers                939464        939464        939464        939464
 MEMORY| Cached               31254168      31254168      31254168      31254168
 MEMORY| Slab                   881616        881616        881616        881616
 MEMORY| SReclaimable           453600        453600        453600        453600
 MEMORY| MemLikelyFree       127764888     127752872     127766964     127761021


 *** Fundamental physical constants (SI units) ***

 *** Literature: B. J. Mohr and B. N. Taylor,
 ***             CODATA recommended values of the fundamental physical
 ***             constants: 2006, Web Version 5.1
 ***             http://physics.nist.gov/constants

 Speed of light in vacuum [m/s]                             2.99792458000000E+08
 Magnetic constant or permeability of vacuum [N/A**2]       1.25663706143592E-06
 Electric constant or permittivity of vacuum [F/m]          8.85418781762039E-12
 Planck constant (h) [J*s]                                  6.62606896000000E-34
 Planck constant (h-bar) [J*s]                              1.05457162825177E-34
 Elementary charge [C]                                      1.60217648700000E-19
 Electron mass [kg]                                         9.10938215000000E-31
 Electron g factor [ ]                                     -2.00231930436220E+00
 Proton mass [kg]                                           1.67262163700000E-27
 Fine-structure constant                                    7.29735253760000E-03
 Rydberg constant [1/m]                                     1.09737315685270E+07
 Avogadro constant [1/mol]                                  6.02214179000000E+23
 Boltzmann constant [J/K]                                   1.38065040000000E-23
 Atomic mass unit [kg]                                      1.66053878200000E-27
 Bohr radius [m]                                            5.29177208590000E-11

 *** Conversion factors ***

 [u] -> [a.u.]                                              1.82288848426455E+03
 [Angstrom] -> [Bohr] = [a.u.]                              1.88972613288564E+00
 [a.u.] = [Bohr] -> [Angstrom]                              5.29177208590000E-01
 [a.u.] -> [s]                                              2.41888432650478E-17
 [a.u.] -> [fs]                                             2.41888432650478E-02
 [a.u.] -> [J]                                              4.35974393937059E-18
 [a.u.] -> [N]                                              8.23872205491840E-08
 [a.u.] -> [K]                                              3.15774647902944E+05
 [a.u.] -> [kJ/mol]                                         2.62549961709828E+03
 [a.u.] -> [kcal/mol]                                       6.27509468713739E+02
 [a.u.] -> [Pa]                                             2.94210107994716E+13
 [a.u.] -> [bar]                                            2.94210107994716E+08
 [a.u.] -> [atm]                                            2.90362800883016E+08
 [a.u.] -> [eV]                                             2.72113838565563E+01
 [a.u.] -> [Hz]                                             6.57968392072181E+15
 [a.u.] -> [1/cm] (wave numbers)                            2.19474631370540E+05
 [a.u./Bohr**2] -> [1/cm]                                   5.14048714338585E+03
 

 CELL_TOP| Volume [angstrom^3]:                                      6731.773414
 CELL_TOP| Vector a [angstrom    18.882     0.000     0.000   |a| =    18.881790
 CELL_TOP| Vector b [angstrom     0.000    18.882     0.000   |b| =    18.881790
 CELL_TOP| Vector c [angstrom     0.000     0.000    18.882   |c| =    18.881790
 CELL_TOP| Angle (b,c), alpha [degree]:                                90.000000
 CELL_TOP| Angle (a,c), beta  [degree]:                                90.000000
 CELL_TOP| Angle (a,b), gamma [degree]:                                90.000000
 CELL_TOP| Numerically orthorhombic:                                         YES

 GENERATE|  Preliminary Number of Bonds generated:                             0
 GENERATE|  Achieved consistency in connectivity generation.

 CELL| Volume [angstrom^3]:                                          6731.773414
 CELL| Vector a [angstrom]:      18.882     0.000     0.000   |a| =    18.881790
 CELL| Vector b [angstrom]:       0.000    18.882     0.000   |b| =    18.881790
 CELL| Vector c [angstrom]:       0.000     0.000    18.882   |c| =    18.881790
 CELL| Angle (b,c), alpha [degree]:                                    90.000000
 CELL| Angle (a,c), beta  [degree]:                                    90.000000
 CELL| Angle (a,b), gamma [degree]:                                    90.000000
 CELL| Numerically orthorhombic:                                             YES

 CELL_REF| Volume [angstrom^3]:                                      6731.773414
 CELL_REF| Vector a [angstrom    18.882     0.000     0.000   |a| =    18.881790
 CELL_REF| Vector b [angstrom     0.000    18.882     0.000   |b| =    18.881790
 CELL_REF| Vector c [angstrom     0.000     0.000    18.882   |c| =    18.881790
 CELL_REF| Angle (b,c), alpha [degree]:                                90.000000
 CELL_REF| Angle (a,c), beta  [degree]:                                90.000000
 CELL_REF| Angle (a,b), gamma [degree]:                                90.000000
 CELL_REF| Numerically orthorhombic:                                         YES

 *******************************************************************************
 *******************************************************************************
 **                                                                           **
 **     #####                         ##              ##                      **
 **    ##   ##            ##          ##              ##                      **
 **   ##     ##                       ##            ######                    **
 **   ##     ##  ##   ##  ##   #####  ##  ##   ####   ##    #####    #####    **
 **   ##     ##  ##   ##  ##  ##      ## ##   ##      ##   ##   ##  ##   ##   **
 **   ##  ## ##  ##   ##  ##  ##      ####     ###    ##   ######   ######    **
 **    ##  ###   ##   ##  ##  ##      ## ##      ##   ##   ##       ##        **
 **     #######   #####   ##   #####  ##  ##  ####    ##    #####   ##        **
 **           ##                                                    ##        **
 **                                                                           **
 **                                                ... make the atoms dance   **
 **                                                                           **
 **            Copyright (C) by CP2K developers group (2000-2022)             **
 **                      J. Chem. Phys. 152, 194103 (2020)                    **
 **                                                                           **
 *******************************************************************************

 DFT| Spin restricted Kohn-Sham (RKS) calculation                            RKS
 DFT| Multiplicity                                                             1
 DFT| Number of spin states                                                    1
 DFT| Charge                                                                   0
 DFT| Self-interaction correction (SIC)                                       NO
 DFT| Cutoffs: density                                              1.000000E-10
 DFT|          gradient                                             1.000000E-10
 DFT|          tau                                                  1.000000E-10
 DFT|          cutoff_smoothing_range                               0.000000E+00
 DFT| XC density smoothing                                                  NONE
 DFT| XC derivatives                                                          PW

 FUNCTIONAL| PBE:
 FUNCTIONAL| revPBE, Yingkay Zhang and Weitao Yang, Phys. Rev. Letter, vol 80,n 
 FUNCTIONAL| 4, p. 890, (1998){spin unpolarized}                                

 vdW POTENTIAL|                                                   Pair Potential
 vdW POTENTIAL|          DFT-D3 (Version 3.1)
 vdW POTENTIAL|          Potential Form: S. Grimme et al, JCP 132: 154104 (2010)
 vdW POTENTIAL|          Zero Damping
 vdW POTENTIAL|          Cutoff Radius [Bohr]:                             75.59
 vdW POTENTIAL|          s6 Scaling Factor:                               1.0000
 vdW POTENTIAL|          sr6 Scaling Factor:                              0.9230
 vdW POTENTIAL|          s8 Scaling Factor:                               1.0100
 vdW POTENTIAL|          Cutoff for CN calculation:                   0.1000E-05

 QS| Method:                                                                 GPW
 QS| Density plane wave grid type                        NON-SPHERICAL FULLSPACE
 QS| Number of grid levels:                                                    5
 QS| Density cutoff [a.u.]:                                                600.0
 QS| Multi grid cutoff [a.u.]: 1) grid level                               600.0
 QS|                           2) grid level                               200.0
 QS|                           3) grid level                                66.7
 QS|                           4) grid level                                22.2
 QS|                           5) grid level                                 7.4
 QS| Grid level progression factor:                                          3.0
 QS| Relative density cutoff [a.u.]:                                        30.0
 QS| Interaction thresholds: eps_pgf_orb:                                1.0E-07
 QS|                         eps_filter_matrix:                          0.0E+00
 QS|                         eps_core_charge:                            1.0E-16
 QS|                         eps_rho_gspace:                             1.0E-14
 QS|                         eps_rho_rspace:                             1.0E-14
 QS|                         eps_gvg_rspace:                             1.0E-07
 QS|                         eps_ppl:                                    1.0E-02
 QS|                         eps_ppnl:                                   1.0E-09


 ATOMIC KIND INFORMATION

  1. Atomic kind: Sn                                    Number of atoms:       4

     Orbital Basis Set                                        DZVP-MOLOPT-SR-GTH

       Number of orbital shell sets:                                           1
       Number of orbital shells:                                               5
       Number of primitive Cartesian functions:                                5
       Number of Cartesian basis functions:                                   14
       Number of spherical basis functions:                                   13
       Norm type:                                                              2

       Normalised Cartesian orbitals:

                        Set   Shell   Orbital            Exponent    Coefficient

                          1       1    2s                0.666670       0.520777
                                                         0.486831      -0.306181
                                                         0.172776      -0.164135
                                                         0.065536      -0.028602
                                                         0.063644       0.007393

                          1       2    3s                0.666670       0.493242
                                                         0.486831      -0.377610
                                                         0.172776      -0.069723
                                                         0.065536      -0.189696
                                                         0.063644       0.305206

                          1       3    3px               0.666670       0.519082
                                                         0.486831      -0.396920
                                                         0.172776      -0.090433
                                                         0.065536      -0.029966
                                                         0.063644       0.012991
                          1       3    3py               0.666670       0.519082
                                                         0.486831      -0.396920
                                                         0.172776      -0.090433
                                                         0.065536      -0.029966
                                                         0.063644       0.012991
                          1       3    3pz               0.666670       0.519082
                                                         0.486831      -0.396920
                                                         0.172776      -0.090433
                                                         0.065536      -0.029966
                                                         0.063644       0.012991

                          1       4    4px               0.666670       0.740628
                                                         0.486831      -0.723623
                                                         0.172776       0.069715
                                                         0.065536      -0.140798
                                                         0.063644       0.174598
                          1       4    4py               0.666670       0.740628
                                                         0.486831      -0.723623
                                                         0.172776       0.069715
                                                         0.065536      -0.140798
                                                         0.063644       0.174598
                          1       4    4pz               0.666670       0.740628
                                                         0.486831      -0.723623
                                                         0.172776       0.069715
                                                         0.065536      -0.140798
                                                         0.063644       0.174598

                          1       5    4dx2              0.666670       0.239194
                                                         0.486831      -0.202509
                                                         0.172776      -0.028531
                                                         0.065536      -0.014897
                                                         0.063644       0.006227
                          1       5    4dxy              0.666670       0.414297
                                                         0.486831      -0.350755
                                                         0.172776      -0.049417
                                                         0.065536      -0.025803
                                                         0.063644       0.010786
                          1       5    4dxz              0.666670       0.414297
                                                         0.486831      -0.350755
                                                         0.172776      -0.049417
                                                         0.065536      -0.025803
                                                         0.063644       0.010786
                          1       5    4dy2              0.666670       0.239194
                                                         0.486831      -0.202509
                                                         0.172776      -0.028531
                                                         0.065536      -0.014897
                                                         0.063644       0.006227
                          1       5    4dyz              0.666670       0.414297
                                                         0.486831      -0.350755
                                                         0.172776      -0.049417
                                                         0.065536      -0.025803
                                                         0.063644       0.010786
                          1       5    4dz2              0.666670       0.239194
                                                         0.486831      -0.202509
                                                         0.172776      -0.028531
                                                         0.065536      -0.014897
                                                         0.063644       0.006227

       Atomic covalent radius [Angstrom]:                                  1.410

       Atomic van der Waals radius [Angstrom]:                             2.170

     GTH Potential information for                                    GTH-PBE-q4

       Description:                       Goedecker-Teter-Hutter pseudopotential
                                           Goedecker et al., PRB 54, 1703 (1996)
                                          Hartwigsen et al., PRB 58, 3641 (1998)
                                                      Krack, TCA 114, 145 (2005)

       Gaussian exponent of the core charge distribution:               1.366027
       Electronic configuration (s p d ...):                               2   2

       Parameters of the local part of the GTH pseudopotential:

                          rloc        C1          C2          C3          C4
                        0.605000    6.266782

       Parameters of the non-local part of the GTH pseudopotential:

                   l      r(l)      h(i,j,l)

                   0    0.566437    1.571181    1.470041   -1.178577
                                    1.470041   -3.814770    3.043072
                                   -1.178577    3.043072   -2.415363
                   1    0.641850    0.526898    0.403258
                                    0.403258   -0.477141
                   2    0.990873    0.198766

  2. Atomic kind: O                                     Number of atoms:     136

     Orbital Basis Set                                              TZV2P-GTH-q6

       Number of orbital shell sets:                                           2
       Number of orbital shells:                                               8
       Number of primitive Cartesian functions:                                7
       Number of Cartesian basis functions:                                   24
       Number of spherical basis functions:                                   22
       Norm type:                                                              2

       Normalised Cartesian orbitals:

                        Set   Shell   Orbital            Exponent    Coefficient

                          1       1    2s               10.267442       0.404544
                                                         3.748050       0.199889
                                                         1.330834      -0.336302
                                                         0.455680      -0.246356
                                                         0.146292      -0.028287

                          1       2    3s               10.267442       0.000000
                                                         3.748050       0.000000
                                                         1.330834       0.000000
                                                         0.455680       0.395280
                                                         0.146292       0.000000

                          1       3    4s               10.267442       0.000000
                                                         3.748050       0.000000
                                                         1.330834       0.000000
                                                         0.455680       0.000000
                                                         0.146292       0.168588

                          1       4    3px              10.267442      -1.561025
                                                         3.748050      -1.394275
                                                         1.330834      -0.754014
                                                         0.455680      -0.224400
                                                         0.146292      -0.029841
                          1       4    3py              10.267442      -1.561025
                                                         3.748050      -1.394275
                                                         1.330834      -0.754014
                                                         0.455680      -0.224400
                                                         0.146292      -0.029841
                          1       4    3pz              10.267442      -1.561025
                                                         3.748050      -1.394275
                                                         1.330834      -0.754014
                                                         0.455680      -0.224400
                                                         0.146292      -0.029841

                          1       5    4px              10.267442       0.000000
                                                         3.748050       0.000000
                                                         1.330834       0.000000
                                                         0.455680       0.533661
                                                         0.146292       0.000000
                          1       5    4py              10.267442       0.000000
                                                         3.748050       0.000000
                                                         1.330834       0.000000
                                                         0.455680       0.533661
                                                         0.146292       0.000000
                          1       5    4pz              10.267442       0.000000
                                                         3.748050       0.000000
                                                         1.330834       0.000000
                                                         0.455680       0.533661
                                                         0.146292       0.000000

                          1       6    5px              10.267442       0.000000
                                                         3.748050       0.000000
                                                         1.330834       0.000000
                                                         0.455680       0.000000
                                                         0.146292       0.128963
                          1       6    5py              10.267442       0.000000
                                                         3.748050       0.000000
                                                         1.330834       0.000000
                                                         0.455680       0.000000
                                                         0.146292       0.128963
                          1       6    5pz              10.267442       0.000000
                                                         3.748050       0.000000
                                                         1.330834       0.000000
                                                         0.455680       0.000000
                                                         0.146292       0.128963

                          2       1    3dx2              2.314000       7.145709
                                                         0.645000       0.000000
                          2       1    3dxy              2.314000      12.376731
                                                         0.645000       0.000000
                          2       1    3dxz              2.314000      12.376731
                                                         0.645000       0.000000
                          2       1    3dy2              2.314000       7.145709
                                                         0.645000       0.000000
                          2       1    3dyz              2.314000      12.376731
                                                         0.645000       0.000000
                          2       1    3dz2              2.314000       7.145709
                                                         0.645000       0.000000

                          2       2    4dx2              2.314000       0.000000
                                                         0.645000       0.764080
                          2       2    4dxy              2.314000       0.000000
                                                         0.645000       1.323426
                          2       2    4dxz              2.314000       0.000000
                                                         0.645000       1.323426
                          2       2    4dy2              2.314000       0.000000
                                                         0.645000       0.764080
                          2       2    4dyz              2.314000       0.000000
                                                         0.645000       1.323426
                          2       2    4dz2              2.314000       0.000000
                                                         0.645000       0.764080

       Atomic covalent radius [Angstrom]:                                  0.730

       Atomic van der Waals radius [Angstrom]:                             1.520

     GTH Potential information for                                    GTH-PBE-q6

       Description:                       Goedecker-Teter-Hutter pseudopotential
                                           Goedecker et al., PRB 54, 1703 (1996)
                                          Hartwigsen et al., PRB 58, 3641 (1998)
                                                      Krack, TCA 114, 145 (2005)

       Gaussian exponent of the core charge distribution:               8.360253
       Electronic configuration (s p d ...):                               2   4

       Parameters of the local part of the GTH pseudopotential:

                          rloc        C1          C2          C3          C4
                        0.244554  -16.667215    2.487311

       Parameters of the non-local part of the GTH pseudopotential:

                   l      r(l)      h(i,j,l)

                   0    0.220956   18.337458
                   1    0.211332

  3. Atomic kind: C                                     Number of atoms:      96

     Orbital Basis Set                                              TZV2P-GTH-q4

       Number of orbital shell sets:                                           2
       Number of orbital shells:                                               8
       Number of primitive Cartesian functions:                                7
       Number of Cartesian basis functions:                                   24
       Number of spherical basis functions:                                   22
       Norm type:                                                              2

       Normalised Cartesian orbitals:

                        Set   Shell   Orbital            Exponent    Coefficient

                          1       1    2s                5.368566       0.245056
                                                         1.983069       0.124102
                                                         0.697835      -0.198350
                                                         0.243097      -0.156359
                                                         0.081287      -0.018192

                          1       2    3s                5.368566       0.000000
                                                         1.983069       0.000000
                                                         0.697835       0.000000
                                                         0.243097       0.246743
                                                         0.081287       0.000000

                          1       3    4s                5.368566       0.000000
                                                         1.983069       0.000000
                                                         0.697835       0.000000
                                                         0.243097       0.000000
                                                         0.081287       0.108499

                          1       4    3px               5.368566      -0.595193
                                                         1.983069      -0.567909
                                                         0.697835      -0.325466
                                                         0.243097      -0.105296
                                                         0.081287      -0.015205
                          1       4    3py               5.368566      -0.595193
                                                         1.983069      -0.567909
                                                         0.697835      -0.325466
                                                         0.243097      -0.105296
                                                         0.081287      -0.015205
                          1       4    3pz               5.368566      -0.595193
                                                         1.983069      -0.567909
                                                         0.697835      -0.325466
                                                         0.243097      -0.105296
                                                         0.081287      -0.015205

                          1       5    4px               5.368566       0.000000
                                                         1.983069       0.000000
                                                         0.697835       0.000000
                                                         0.243097       0.243312
                                                         0.081287       0.000000
                          1       5    4py               5.368566       0.000000
                                                         1.983069       0.000000
                                                         0.697835       0.000000
                                                         0.243097       0.243312
                                                         0.081287       0.000000
                          1       5    4pz               5.368566       0.000000
                                                         1.983069       0.000000
                                                         0.697835       0.000000
                                                         0.243097       0.243312
                                                         0.081287       0.000000

                          1       6    5px               5.368566       0.000000
                                                         1.983069       0.000000
                                                         0.697835       0.000000
                                                         0.243097       0.000000
                                                         0.081287       0.061868
                          1       6    5py               5.368566       0.000000
                                                         1.983069       0.000000
                                                         0.697835       0.000000
                                                         0.243097       0.000000
                                                         0.081287       0.061868
                          1       6    5pz               5.368566       0.000000
                                                         1.983069       0.000000
                                                         0.697835       0.000000
                                                         0.243097       0.000000
                                                         0.081287       0.061868

                          2       1    3dx2              1.097000       1.935401
                                                         0.318000       0.000000
                          2       1    3dxy              1.097000       3.352214
                                                         0.318000       0.000000
                          2       1    3dxz              1.097000       3.352214
                                                         0.318000       0.000000
                          2       1    3dy2              1.097000       1.935401
                                                         0.318000       0.000000
                          2       1    3dyz              1.097000       3.352214
                                                         0.318000       0.000000
                          2       1    3dz2              1.097000       1.935401
                                                         0.318000       0.000000

                          2       2    4dx2              1.097000       0.000000
                                                         0.318000       0.221644
                          2       2    4dxy              1.097000       0.000000
                                                         0.318000       0.383899
                          2       2    4dxz              1.097000       0.000000
                                                         0.318000       0.383899
                          2       2    4dy2              1.097000       0.000000
                                                         0.318000       0.221644
                          2       2    4dyz              1.097000       0.000000
                                                         0.318000       0.383899
                          2       2    4dz2              1.097000       0.000000
                                                         0.318000       0.221644

       Atomic covalent radius [Angstrom]:                                  0.770

       Atomic van der Waals radius [Angstrom]:                             1.700

     GTH Potential information for                                    GTH-PBE-q4

       Description:                       Goedecker-Teter-Hutter pseudopotential
                                           Goedecker et al., PRB 54, 1703 (1996)
                                          Hartwigsen et al., PRB 58, 3641 (1998)
                                                      Krack, TCA 114, 145 (2005)

       Gaussian exponent of the core charge distribution:               4.364419
       Electronic configuration (s p d ...):                               2   2

       Parameters of the local part of the GTH pseudopotential:

                          rloc        C1          C2          C3          C4
                        0.338471   -8.803674    1.339211

       Parameters of the non-local part of the GTH pseudopotential:

                   l      r(l)      h(i,j,l)

                   0    0.302576    9.622487
                   1    0.291507

  4. Atomic kind: H                                     Number of atoms:     368

     Orbital Basis Set                                              TZV2P-GTH-q1

       Number of orbital shell sets:                                           2
       Number of orbital shells:                                               5
       Number of primitive Cartesian functions:                                7
       Number of Cartesian basis functions:                                    9
       Number of spherical basis functions:                                    9
       Norm type:                                                              2

       Normalised Cartesian orbitals:

                        Set   Shell   Orbital            Exponent    Coefficient

                          1       1    1s               10.882724      -0.071340
                                                         3.096875      -0.104410
                                                         0.987452      -0.135375
                                                         0.345069      -0.133923
                                                         0.149269      -0.073092

                          1       2    2s               10.882724       0.000000
                                                         3.096875       0.000000
                                                         0.987452       0.000000
                                                         0.345069       0.320878
                                                         0.149269       0.000000

                          1       3    3s               10.882724       0.000000
                                                         3.096875       0.000000
                                                         0.987452       0.000000
                                                         0.345069       0.000000
                                                         0.149269       0.171154

                          2       1    2px               1.407000       2.184277
                                                         0.388000       0.000000
                          2       1    2py               1.407000       2.184277
                                                         0.388000       0.000000
                          2       1    2pz               1.407000       2.184277
                                                         0.388000       0.000000

                          2       2    3px               1.407000       0.000000
                                                         0.388000       0.436495
                          2       2    3py               1.407000       0.000000
                                                         0.388000       0.436495
                          2       2    3pz               1.407000       0.000000
                                                         0.388000       0.436495

       Atomic covalent radius [Angstrom]:                                  0.320

       Atomic van der Waals radius [Angstrom]:                             1.090

     GTH Potential information for                                    GTH-PBE-q1

       Description:                       Goedecker-Teter-Hutter pseudopotential
                                           Goedecker et al., PRB 54, 1703 (1996)
                                          Hartwigsen et al., PRB 58, 3641 (1998)
                                                      Krack, TCA 114, 145 (2005)

       Gaussian exponent of the core charge distribution:              12.500000
       Electronic configuration (s p d ...):                                   1

       Parameters of the local part of the GTH pseudopotential:

                          rloc        C1          C2          C3          C4
                        0.200000   -4.178900    0.724463


 MOLECULE KIND INFORMATION


 All atoms are their own molecule, skipping detailed information


 TOTAL NUMBERS AND MAXIMUM NUMBERS

  Total number of            - Atomic kinds:                                   4
                             - Atoms:                                        604
                             - Shell sets:                                  1204
                             - Shells:                                      3716
                             - Primitive Cartesian functions:               4220
                             - Cartesian basis functions:                   8936
                             - Spherical basis functions:                   8468

  Maximum angular momentum of- Orbital basis functions:                        2
                             - Local part of the GTH pseudopotential:          2
                             - Non-local part of the GTH pseudopotential:      4


 MODULE QUICKSTEP:  ATOMIC COORDINATES IN angstrom

 Atom  Kind  Element       X           Y           Z          Z(eff)       Mass
    1   1 Sn  50       8.444720   11.737300    4.556670       4.0000    118.7100
    2   2 O    8       3.688000   14.275000   17.829300       6.0000     15.9994
    3   2 O    8       8.681570   14.123100    3.109360       6.0000     15.9994
    4   3 C    6      11.773300   13.229300   10.960100       4.0000     12.0107
    5   3 C    6      11.752900   13.147300   12.322900       4.0000     12.0107
    6   4 H    1      12.308500   12.678800    9.955130       1.0000      1.0079
    7   4 H    1      11.981400   13.987500   10.182400       1.0000      1.0079
    8   3 C    6       2.426410   13.724200   10.936000       4.0000     12.0107
    9   3 C    6       2.278840   12.379300   11.279000       4.0000     12.0107
   10   4 H    1       3.355700   13.984300   11.050900       1.0000      1.0079
   11   4 H    1       1.716770   14.518100   10.755800       1.0000      1.0079
   12   3 C    6       3.243990   13.099200   17.857600       4.0000     12.0107
   13   3 C    6       2.081950   13.160800   16.749600       4.0000     12.0107
   14   3 C    6       2.562330   12.446500   15.718900       4.0000     12.0107
   15   3 C    6       9.616690   14.286300    6.286920       4.0000     12.0107
   16   3 C    6       8.636750   13.869900    7.269810       4.0000     12.0107
   17   3 C    6       8.686160   12.346300    7.964780       4.0000     12.0107
   18   2 O    8       3.564670   12.017600   18.504200       6.0000     15.9994
   19   2 O    8      10.084000   14.579500    5.270230       6.0000     15.9994
   20   3 C    6      11.146800   11.876500   12.788700       4.0000     12.0107
   21   3 C    6      11.264900   11.701300   14.224900       4.0000     12.0107
   22   3 C    6      11.666400   12.829900   15.172400       4.0000     12.0107
   23   3 C    6      12.427000   13.967000   14.649600       4.0000     12.0107
   24   3 C    6      12.130800   14.186500   13.347100       4.0000     12.0107
   25   3 C    6       2.899130   11.230100   10.594400       4.0000     12.0107
   26   3 C    6       2.658440    9.902440   11.084500       4.0000     12.0107
   27   3 C    6       1.767670    9.598080   12.264700       4.0000     12.0107
   28   3 C    6       0.956747   10.706300   12.660200       4.0000     12.0107
   29   3 C    6       1.291580   12.001100   12.256500       4.0000     12.0107
   30   4 H    1      10.775600   11.028500   12.369100       1.0000      1.0079
   31   4 H    1      11.009000   10.857500   14.820300       1.0000      1.0079
   32   4 H    1      12.109500   12.446100   16.187100       1.0000      1.0079
   33   4 H    1      13.145600   14.599100   14.875900       1.0000      1.0079
   34   4 H    1      12.578600   14.863500   12.850800       1.0000      1.0079
   35   4 H    1       0.381252   12.594600   12.636900       1.0000      1.0079
   36   4 H    1       3.664990   11.339600    9.781890       1.0000      1.0079
   37   4 H    1       3.057050    8.869330   10.752900       1.0000      1.0079
   38   4 H    1       2.091420    8.759330   12.794300       1.0000      1.0079
   39   4 H    1       0.214753   10.387700   13.452500       1.0000      1.0079
   40   3 C    6       0.772263   13.912000   16.683600       4.0000     12.0107
   41   4 H    1       0.828167   14.944300   16.809300       1.0000      1.0079
   42   4 H    1       0.331882   13.493700   17.608000       1.0000      1.0079
   43   4 H    1       0.277765   13.506800   15.837200       1.0000      1.0079
   44   3 C    6       4.013960    3.820920    2.116930       4.0000     12.0107
   45   4 H    1       2.829160    3.996530    2.171370       1.0000      1.0079
   46   4 H    1       4.301990    3.768830    3.213940       1.0000      1.0079
   47   4 H    1      14.868700    3.329540   13.159600       1.0000      1.0079
   48   4 H    1       2.346260   11.374600   16.023200       1.0000      1.0079
   49   4 H    1       2.178970   12.402200   14.433900       1.0000      1.0079
   50   4 H    1       4.485760    4.479640    1.268190       1.0000      1.0079
   51   4 H    1       9.213300   11.560800    7.348090       1.0000      1.0079
   52   4 H    1       7.641410   11.999200    8.013780       1.0000      1.0079
   53   4 H    1       9.146280   12.138100    8.912000       1.0000      1.0079
   54   3 C    6       7.365730   14.240000    6.923290       4.0000     12.0107
   55   4 H    1       6.877260   13.834500    5.856910       1.0000      1.0079
   56   4 H    1       8.321960   14.543600    4.017700       1.0000      1.0079
   57   4 H    1      15.118400    9.662150    5.282220       1.0000      1.0079
   58   3 C    6       6.309140   15.202600    7.129370       4.0000     12.0107
   59   4 H    1       7.023860   16.025900    7.294000       1.0000      1.0079
   60   4 H    1       5.933750   15.067300    8.141120       1.0000      1.0079
   61   4 H    1       5.387240   15.953100    6.606200       1.0000      1.0079
   62   1 Sn  50      15.690400   16.815300    8.029160       4.0000    118.7100
   63   2 O    8      12.122200    2.248070    3.053340       6.0000     15.9994
   64   2 O    8      13.398900   16.110000    7.435380       6.0000     15.9994
   65   3 C    6       6.432150   17.477400    0.740061       4.0000     12.0107
   66   3 C    6       5.741240   16.753600    1.594670       4.0000     12.0107
   67   4 H    1       7.341060   18.115300    1.062120       1.0000      1.0079
   68   4 H    1       5.860360   18.127000    0.204438       1.0000      1.0079
   69   3 C    6       3.925670    6.277800    7.033800       4.0000     12.0107
   70   3 C    6       4.696850    5.407550    7.899340       4.0000     12.0107
   71   4 H    1       3.305770    6.877650    7.545080       1.0000      1.0079
   72   4 H    1       3.279050    5.909820    6.172130       1.0000      1.0079
   73   3 C    6      12.712400    2.911550    3.884510       4.0000     12.0107
   74   3 C    6      12.780900    2.129720    5.368350       4.0000     12.0107
   75   3 C    6      11.134000    1.861400    5.806740       4.0000     12.0107
   76   3 C    6      13.417800   15.831400    6.169010       4.0000     12.0107
   77   3 C    6      13.896500   14.159200    5.599380       4.0000     12.0107
   78   3 C    6      15.184900   14.268200    4.782950       4.0000     12.0107
   79   2 O    8      12.727400    4.253640    3.990210       6.0000     15.9994
   80   2 O    8      12.949000   16.596400    5.218400       6.0000     15.9994
   81   3 C    6       4.564770   15.818700    1.083770       4.0000     12.0107
   82   3 C    6       4.135880   14.881300    2.125940       4.0000     12.0107
   83   3 C    6       3.940790   15.291300    3.461230       4.0000     12.0107
   84   3 C    6       4.854640   16.411500    3.778490       4.0000     12.0107
   85   3 C    6       6.046320   16.633000    3.163580       4.0000     12.0107
   86   3 C    6       5.574380    5.868690    8.959320       4.0000     12.0107
   87   3 C    6       6.775270    5.315490    9.043430       4.0000     12.0107
   88   3 C    6       7.206830    4.110870    8.164960       4.0000     12.0107
   89   3 C    6       6.239900    3.682920    7.371250       4.0000     12.0107
   90   3 C    6       4.968500    4.003660    7.437140       4.0000     12.0107
   91   4 H    1       4.153910   16.140600    0.045860       1.0000      1.0079
   92   4 H    1       3.379940   14.109000    2.089020       1.0000      1.0079
   93   4 H    1       3.013140   14.956400    3.890480       1.0000      1.0079
   94   4 H    1       4.216960   17.210600    4.103580       1.0000      1.0079
   95   4 H    1       6.710730   17.283400    3.693110       1.0000      1.0079
   96   4 H    1       4.316540    3.463280    6.770360       1.0000      1.0079
   97   4 H    1       5.267660    6.916320    9.209740       1.0000      1.0079
   98   4 H    1       7.407450    5.750190    9.757860       1.0000      1.0079
   99   4 H    1       7.948920    3.552370    8.523390       1.0000      1.0079
  100   4 H    1       6.603280    2.976550    6.604880       1.0000      1.0079
  101   3 C    6      13.774700    3.058170    6.404300       4.0000     12.0107
  102   4 H    1      13.179300    3.065630    7.379700       1.0000      1.0079
  103   4 H    1      13.784200    4.215370    6.171520       1.0000      1.0079
  104   4 H    1      14.702200    2.479790    6.386740       1.0000      1.0079
  105   3 C    6      13.710800    0.953482    5.258900       4.0000     12.0107
  106   4 H    1      13.068700    0.114953    4.747360       1.0000      1.0079
  107   4 H    1       4.360370    7.227240    6.547900       1.0000      1.0079
  108   4 H    1      14.736200    1.500290    4.719060       1.0000      1.0079
  109   4 H    1      10.577200    2.672460    6.285820       1.0000      1.0079
  110   4 H    1      11.088100    1.192870    6.778370       1.0000      1.0079
  111   4 H    1      10.709400    1.155100    5.153210       1.0000      1.0079
  112   4 H    1      15.202600   13.520500    4.055520       1.0000      1.0079
  113   4 H    1      15.886600   14.150900    5.570830       1.0000      1.0079
  114   4 H    1      15.593400   15.239400    4.554500       1.0000      1.0079
  115   3 C    6      14.438100   13.293900    6.678480       4.0000     12.0107
  116   4 H    1      15.152100   13.550200    7.385160       1.0000      1.0079
  117   4 H    1      14.273500   12.186300    6.315890       1.0000      1.0079
  118   4 H    1      13.429700   13.114600    7.144010       1.0000      1.0079
  119   3 C    6      12.946600   13.520700    4.656560       4.0000     12.0107
  120   4 H    1      12.283200   14.170400    4.149000       1.0000      1.0079
  121   4 H    1      12.064200   12.818200    5.085150       1.0000      1.0079
  122   4 H    1      13.297900   13.013500    3.620380       1.0000      1.0079
  123   1 Sn  50       5.237410   18.033000   12.703400       4.0000    118.7100
  124   2 O    8       6.812730   12.062800    1.261950       6.0000     15.9994
  125   2 O    8       4.639840   18.169500   15.044200       6.0000     15.9994
  126   3 C    6       7.892530    0.929154    7.989980       4.0000     12.0107
  127   3 C    6       6.621240    1.048230    8.731740       4.0000     12.0107
  128   4 H    1       8.119680    1.706120    7.382460       1.0000      1.0079
  129   4 H    1       7.948380    0.011429    7.312040       1.0000      1.0079
  130   3 C    6       1.290210   16.827900   13.120100       4.0000     12.0107
  131   3 C    6       0.564774   17.486000   14.400700       4.0000     12.0107
  132   4 H    1       0.689611   15.986500   13.351700       1.0000      1.0079
  133   4 H    1       1.062450   16.777200   12.067600       1.0000      1.0079
  134   3 C    6      15.201400   13.914700   17.730900       4.0000     12.0107
  135   3 C    6      16.280500   13.128400   18.463600       4.0000     12.0107
  136   3 C    6       7.342460   12.743800    0.217013       4.0000     12.0107
  137   3 C    6       3.629670    0.245925   14.974900       4.0000     12.0107
  138   3 C    6       2.803670    0.484962   16.308500       4.0000     12.0107
  139   3 C    6      17.438700   11.846400    4.505730       4.0000     12.0107
  140   2 O    8      14.882800   14.709800   16.843000       6.0000     15.9994
  141   2 O    8       3.542580    1.240920   14.322700       6.0000     15.9994
  142   3 C    6       5.523170    0.202783    8.331220       4.0000     12.0107
  143   3 C    6       4.365910    0.577302    8.986340       4.0000     12.0107
  144   3 C    6       3.978240    1.610550    9.948970       4.0000     12.0107
  145   3 C    6       5.039570    2.477020   10.193600       4.0000     12.0107
  146   3 C    6       6.373030    1.885540    9.985660       4.0000     12.0107
  147   3 C    6      18.715400   18.706000   14.287400       4.0000     12.0107
  148   3 C    6      17.529300   18.732500   14.938900       4.0000     12.0107
  149   3 C    6      17.873800   18.334200   16.300100       4.0000     12.0107
  150   3 C    6      18.829200   17.456700   16.672600       4.0000     12.0107
  151   3 C    6       0.909531   17.048800   15.555400       4.0000     12.0107
  152   4 H    1       5.849190   18.065800    7.945610       1.0000      1.0079
  153   4 H    1       4.040500   18.283300    9.210660       1.0000      1.0079
  154   4 H    1       2.969280    1.749140   10.123500       1.0000      1.0079
  155   4 H    1       5.806640    5.256460   11.669000       1.0000      1.0079
  156   4 H    1       7.243750    2.036040   10.549000       1.0000      1.0079
  157   4 H    1       1.576930   16.302800   15.911500       1.0000      1.0079
  158   4 H    1      18.769900    0.929538   13.449200       1.0000      1.0079
  159   4 H    1      16.692500    0.531827   15.057200       1.0000      1.0079
  160   4 H    1      17.395400    0.142896   17.123400       1.0000      1.0079
  161   4 H    1       0.068895   16.930500   17.723700       1.0000      1.0079
  162   3 C    6      16.511100   13.856300    1.078730       4.0000     12.0107
  163   4 H    1      15.708000   14.438900    1.623250       1.0000      1.0079
  164   4 H    1      17.238200   14.553700    1.172680       1.0000      1.0079
  165   4 H    1      16.473500   13.033500    1.673800       1.0000      1.0079
  166   3 C    6      16.864700   11.847500   18.377600       4.0000     12.0107
  167   4 H    1      16.283400   11.289400   17.681700       1.0000      1.0079
  168   4 H    1      17.914200   11.676300    0.016060       1.0000      1.0079
  169   4 H    1      13.664300   11.182600   17.829900       1.0000      1.0079
  170   4 H    1       8.127010   12.266600   18.548200       1.0000      1.0079
  171   4 H    1      16.774700   18.772600    4.352440       1.0000      1.0079
  172   4 H    1       6.762380   13.323900   18.447000       1.0000      1.0079
  173   4 H    1      17.616100   11.688600    3.453310       1.0000      1.0079
  174   4 H    1      17.604600   11.069300    5.180730       1.0000      1.0079
  175   4 H    1      18.391800    8.071010   13.234800       1.0000      1.0079
  176   3 C    6       1.569630    1.191370   16.666300       4.0000     12.0107
  177   4 H    1      10.043200    4.449310    2.570020       1.0000      1.0079
  178   4 H    1       1.675670    2.203610   16.529200       1.0000      1.0079
  179   4 H    1       0.869922    0.946527   17.508000       1.0000      1.0079
  180   3 C    6       3.460410   18.624500   17.477200       4.0000     12.0107
  181   4 H    1       3.819930    0.550399   18.148500       1.0000      1.0079
  182   4 H    1       1.178380    0.524086    7.918070       1.0000      1.0079
  183   4 H    1       2.490260   18.111000   17.870600       1.0000      1.0079
  184   1 Sn  50      14.634200    3.515050    0.183596       4.0000    118.7100
  185   2 O    8       2.855060    6.149950    3.189060       6.0000     15.9994
  186   2 O    8      15.257200    2.770320   16.420100       6.0000     15.9994
  187   3 C    6      10.199400    2.358170   16.696000       4.0000     12.0107
  188   3 C    6       9.883550    3.174420   17.794300       4.0000     12.0107
  189   4 H    1       9.450040    2.454550   15.779500       1.0000      1.0079
  190   4 H    1      10.786500    1.638310   16.517400       1.0000      1.0079
  191   3 C    6      17.128900    9.509270   10.166000       4.0000     12.0107
  192   3 C    6      16.689900    8.513420    8.969730       4.0000     12.0107
  193   4 H    1      13.406900   10.726800   11.504400       1.0000      1.0079
  194   4 H    1      17.378700   10.487400    9.700590       1.0000      1.0079
  195   3 C    6      13.038700    5.300940   16.297300       4.0000     12.0107
  196   3 C    6      13.821100    7.290850   16.987900       4.0000     12.0107
  197   3 C    6       9.797750   17.087900    0.375238       4.0000     12.0107
  198   3 C    6      16.053700    3.565170   16.242400       4.0000     12.0107
  199   3 C    6       3.593390   10.550000    6.808530       4.0000     12.0107
  200   3 C    6       4.874520   10.691100    6.038390       4.0000     12.0107
  201   2 O    8      13.107600    5.050210   15.181400       6.0000     15.9994
  202   2 O    8      17.157900    3.980140   16.050800       6.0000     15.9994
  203   3 C    6      10.371600    4.408090   17.974500       4.0000     12.0107
  204   3 C    6      10.717300    4.744600    0.498171       4.0000     12.0107
  205   3 C    6       9.920090    4.148410    1.425940       4.0000     12.0107
  206   3 C    6       9.005860    3.041720    1.288630       4.0000     12.0107
  207   3 C    6       9.120170    2.544510   18.866900       4.0000     12.0107
  208   3 C    6      16.940400    8.935620    7.665280       4.0000     12.0107
  209   3 C    6      16.381000    8.112560    6.615620       4.0000     12.0107
  210   3 C    6      15.174600    7.622820    6.673370       4.0000     12.0107
  211   3 C    6      14.836500    7.402770    8.005960       4.0000     12.0107
  212   3 C    6      15.412500    8.110110    9.001460       4.0000     12.0107
  213   4 H    1      10.896700    4.710840   17.148000       1.0000      1.0079
  214   4 H    1      11.089400    5.807200    0.579895       1.0000      1.0079
  215   4 H    1       8.605260    5.546640    1.661190       1.0000      1.0079
  216   4 H    1       8.276090    2.968420    2.111230       1.0000      1.0079
  217   4 H    1       8.477370    1.536390   18.596200       1.0000      1.0079
  218   4 H    1      14.780600    8.441680    9.827110       1.0000      1.0079
  219   4 H    1      17.392800   10.019800    7.701750       1.0000      1.0079
  220   4 H    1      16.873300    7.787180    5.799510       1.0000      1.0079
  221   4 H    1      14.534600    7.461490    5.764630       1.0000      1.0079
  222   4 H    1      14.111000    6.548290    8.280090       1.0000      1.0079
  223   3 C    6      14.794900    7.669180   17.807000       4.0000     12.0107
  224   4 H    1       6.449540    9.213630   16.805400       1.0000      1.0079
  225   4 H    1      14.724600    8.925790   17.659300       1.0000      1.0079
  226   4 H    1      14.117800    3.172030   14.853600       1.0000      1.0079
  227   3 C    6      12.723100    6.580660   16.791400       4.0000     12.0107
  228   4 H    1      18.407100    7.928470   18.487700       1.0000      1.0079
  229   4 H    1      11.644600    6.745820   16.989500       1.0000      1.0079
  230   4 H    1       2.471200    5.341170    3.048400       1.0000      1.0079
  231   4 H    1       9.389940   16.712300    1.260690       1.0000      1.0079
  232   4 H    1      10.397300   18.515800    0.536458       1.0000      1.0079
  233   4 H    1       8.992210   16.992500   18.448300       1.0000      1.0079
  234   4 H    1       4.916370   10.258500    5.067100       1.0000      1.0079
  235   4 H    1       5.697570   10.169900    6.594200       1.0000      1.0079
  236   4 H    1       4.977230   11.856000    5.791140       1.0000      1.0079
  237   3 C    6       2.929590   11.788500    7.485200       4.0000     12.0107
  238   4 H    1       2.274080   12.257000    6.858840       1.0000      1.0079
  239   4 H    1       3.642050   12.594700    7.460500       1.0000      1.0079
  240   4 H    1       2.778790   11.511900    8.568010       1.0000      1.0079
  241   3 C    6       2.812800    9.236470    6.610540       4.0000     12.0107
  242   4 H    1       2.132870    8.677770    7.532570       1.0000      1.0079
  243   4 H    1       3.455220    8.715010    5.903300       1.0000      1.0079
  244   4 H    1       2.779790   11.359200    2.805630       1.0000      1.0079
  245   2 O    8       1.311380    1.078580    7.174720       6.0000     15.9994
  246   4 H    1      15.594500    7.195920   13.358900       1.0000      1.0079
  247   4 H    1       4.254500   17.949100   17.253700       1.0000      1.0079
  248   2 O    8       8.906390    7.344730   17.072700       6.0000     15.9994
  249   4 H    1       9.218300    8.314420   17.421400       1.0000      1.0079
  250   4 H    1       9.651760    6.851610   17.618500       1.0000      1.0079
  251   2 O    8       1.845800    5.560390   17.094700       6.0000     15.9994
  252   4 H    1       1.550170    5.707140   18.031600       1.0000      1.0079
  253   4 H    1       1.702080    4.604630   17.003800       1.0000      1.0079
  254   2 O    8      16.612000    2.677000    0.442953       6.0000     15.9994
  255   4 H    1      16.699600    2.721500   18.348600       1.0000      1.0079
  256   4 H    1       2.830190    6.026000    4.273520       1.0000      1.0079
  257   2 O    8      17.447900   15.716100    8.200200       6.0000     15.9994
  258   4 H    1       8.831550    0.127171    9.031490       1.0000      1.0079
  259   4 H    1      18.013400   16.443900    8.227780       1.0000      1.0079
  260   2 O    8      14.376700   16.079100    2.299880       6.0000     15.9994
  261   4 H    1      13.622000   15.752800    2.768190       1.0000      1.0079
  262   4 H    1      14.539300   15.854200    1.338640       1.0000      1.0079
  263   2 O    8      11.787200    3.751830   11.841800       6.0000     15.9994
  264   4 H    1      11.822500    4.764150   11.467600       1.0000      1.0079
  265   4 H    1      12.510100    3.688930   12.402000       1.0000      1.0079
  266   2 O    8      15.245800    8.795050   14.067300       6.0000     15.9994
  267   4 H    1      14.832700    8.773430   13.119600       1.0000      1.0079
  268   4 H    1      14.968700    8.078820   14.657500       1.0000      1.0079
  269   2 O    8      16.053700   18.176800    4.781610       6.0000     15.9994
  270   4 H    1      15.272600   18.383800    5.317970       1.0000      1.0079
  271   4 H    1      15.438000    1.171220   10.009600       1.0000      1.0079
  272   2 O    8       0.617055   10.443100    0.234653       6.0000     15.9994
  273   4 H    1       0.744419    9.597830   18.508100       1.0000      1.0079
  274   4 H    1       2.077900    9.428740    5.542820       1.0000      1.0079
  275   2 O    8       0.344550    7.489920    8.604060       6.0000     15.9994
  276   4 H    1      18.579600    6.906010    8.097300       1.0000      1.0079
  277   4 H    1      18.535800    8.091390    8.665480       1.0000      1.0079
  278   2 O    8       0.329361    7.625160   13.027900       6.0000     15.9994
  279   4 H    1       0.212924    6.602800   13.159900       1.0000      1.0079
  280   4 H    1       2.012060   17.209300    6.229950       1.0000      1.0079
  281   2 O    8      10.904900    8.507520    5.950040       6.0000     15.9994
  282   4 H    1       9.916520    8.726690    6.063200       1.0000      1.0079
  283   4 H    1      11.034100    8.945780    6.820630       1.0000      1.0079
  284   2 O    8      17.126900    6.000220    1.480910       6.0000     15.9994
  285   4 H    1      17.654400    5.428470    1.035450       1.0000      1.0079
  286   4 H    1      17.314900    6.792360    1.021570       1.0000      1.0079
  287   2 O    8       1.636550   14.609100    8.576200       6.0000     15.9994
  288   4 H    1       1.508820   13.687100    8.661180       1.0000      1.0079
  289   4 H    1      17.389900   17.582800   10.442400       1.0000      1.0079
  290   2 O    8       7.481380    8.065720    4.941940       6.0000     15.9994
  291   4 H    1       3.860390    2.838050    1.628600       1.0000      1.0079
  292   4 H    1       6.974320    8.406170    5.579900       1.0000      1.0079
  293   2 O    8      10.732200    6.950750   14.170300       6.0000     15.9994
  294   4 H    1      11.253500    6.136310   14.343300       1.0000      1.0079
  295   4 H    1       9.984180    6.740860   14.802300       1.0000      1.0079
  296   2 O    8       5.252340   15.784700   16.342400       6.0000     15.9994
  297   4 H    1      16.425700   14.484000   14.770800       1.0000      1.0079
  298   4 H    1       4.689250   16.430900   16.036800       1.0000      1.0079
  299   2 O    8       2.784640    9.229770   17.476100       6.0000     15.9994
  300   4 H    1       2.885650    8.540450   18.150700       1.0000      1.0079
  301   4 H    1       2.560700    8.719520   16.656300       1.0000      1.0079
  302   2 O    8      12.981300    6.676270    0.913132       6.0000     15.9994
  303   4 H    1      13.251600    6.533730    1.722470       1.0000      1.0079
  304   4 H    1      13.200300    5.887250    0.353967       1.0000      1.0079
  305   2 O    8      18.457600    8.479070    2.035600       6.0000     15.9994
  306   4 H    1       4.409520   15.145200   16.587700       1.0000      1.0079
  307   4 H    1       0.427324    8.824670    2.470790       1.0000      1.0079
  308   2 O    8       2.556420   12.357800    3.159750       6.0000     15.9994
  309   4 H    1       4.161750    1.024390    2.190600       1.0000      1.0079
  310   4 H    1       2.013020   12.019700    3.899150       1.0000      1.0079
  311   2 O    8       4.446340    8.725370   13.454400       6.0000     15.9994
  312   4 H    1       4.464000    7.763390   13.557800       1.0000      1.0079
  313   4 H    1       4.998900    9.090510   12.676400       1.0000      1.0079
  314   2 O    8       1.430390   17.481400    5.512200       6.0000     15.9994
  315   4 H    1       2.053210   17.952800    4.805710       1.0000      1.0079
  316   4 H    1      16.301100   12.387600    4.638580       1.0000      1.0079
  317   2 O    8      14.810500   13.432700   10.379300       6.0000     15.9994
  318   4 H    1      14.576200   12.837600   11.153100       1.0000      1.0079
  319   4 H    1      15.164400   14.138100   10.797000       1.0000      1.0079
  320   2 O    8       7.512070    5.295420    4.674090       6.0000     15.9994
  321   4 H    1       7.719340    4.358310    4.495990       1.0000      1.0079
  322   4 H    1       6.938200    5.294890    5.338630       1.0000      1.0079
  323   2 O    8      10.436600   15.554500    8.838300       6.0000     15.9994
  324   4 H    1      11.277900   15.428100    8.368330       1.0000      1.0079
  325   4 H    1       9.955980   15.009600    8.215270       1.0000      1.0079
  326   2 O    8       1.070940   15.303800    0.217080       6.0000     15.9994
  327   4 H    1       0.099519   15.342200    0.592069       1.0000      1.0079
  328   4 H    1       1.289130   14.692400   18.358200       1.0000      1.0079
  329   2 O    8       7.641280    5.877350    1.494660       6.0000     15.9994
  330   4 H    1       7.863090    6.663130    0.884431       1.0000      1.0079
  331   4 H    1       8.171790    8.604830    4.738720       1.0000      1.0079
  332   2 O    8       7.553870    0.540150   12.785900       6.0000     15.9994
  333   4 H    1       8.317400    0.208522   12.135500       1.0000      1.0079
  334   4 H    1       7.751370    0.198801   13.643500       1.0000      1.0079
  335   2 O    8       7.784880   12.420100   14.389600       6.0000     15.9994
  336   4 H    1       8.455750   11.804100   14.262400       1.0000      1.0079
  337   4 H    1       8.185470   13.197700   14.723400       1.0000      1.0079
  338   2 O    8      16.855600    4.262140    7.737190       6.0000     15.9994
  339   4 H    1      16.527800    5.061270   11.892600       1.0000      1.0079
  340   4 H    1      16.198600    4.520640    8.497640       1.0000      1.0079
  341   2 O    8      15.651000    6.298650   12.994700       6.0000     15.9994
  342   4 H    1      13.663500    6.346410   10.139200       1.0000      1.0079
  343   4 H    1      14.682400    5.890260   13.258300       1.0000      1.0079
  344   2 O    8       0.755444    4.563590   13.741800       6.0000     15.9994
  345   4 H    1       1.030170    5.074990   14.626400       1.0000      1.0079
  346   4 H    1       0.265968    3.912320   14.344800       1.0000      1.0079
  347   2 O    8       0.539117    6.734940    4.822220       6.0000     15.9994
  348   4 H    1      18.761300    6.290030    4.272370       1.0000      1.0079
  349   4 H    1       1.073210    7.453210    4.522360       1.0000      1.0079
  350   2 O    8      14.331100    1.131840    0.655159       6.0000     15.9994
  351   4 H    1      15.119700    0.815497    0.354120       1.0000      1.0079
  352   4 H    1       1.870030   14.244200    5.334300       1.0000      1.0079
  353   2 O    8       8.565920   15.310300   12.822900       6.0000     15.9994
  354   4 H    1       9.302080   14.780800   13.157800       1.0000      1.0079
  355   4 H    1       7.811260   15.062700   13.365100       1.0000      1.0079
  356   2 O    8       9.043590    4.854040   11.863500       6.0000     15.9994
  357   4 H    1       8.608430    5.724030   11.705300       1.0000      1.0079
  358   4 H    1       9.414910    4.989990   12.725300       1.0000      1.0079
  359   2 O    8       4.306540    6.010550   13.952100       6.0000     15.9994
  360   4 H    1       6.434080   10.180200   15.651700       1.0000      1.0079
  361   4 H    1       5.031240    5.725150   14.505100       1.0000      1.0079
  362   2 O    8      10.995200   15.302700    2.007890       6.0000     15.9994
  363   4 H    1      11.609200   16.079200    2.004280       1.0000      1.0079
  364   4 H    1      11.726300   14.872000    1.649890       1.0000      1.0079
  365   2 O    8      11.456200   18.230100    7.811170       6.0000     15.9994
  366   4 H    1      12.257400   17.627900    7.721970       1.0000      1.0079
  367   4 H    1      11.547100   18.259700    8.794920       1.0000      1.0079
  368   2 O    8      12.870900    7.850360   11.626000       6.0000     15.9994
  369   4 H    1      12.231500    7.447090   12.258700       1.0000      1.0079
  370   4 H    1      13.429100    8.605930   12.051200       1.0000      1.0079
  371   2 O    8      14.721900   11.995400    2.666820       6.0000     15.9994
  372   4 H    1      15.010300   12.936400    2.542310       1.0000      1.0079
  373   4 H    1      15.339600   11.450800    3.073080       1.0000      1.0079
  374   2 O    8      14.081100    3.440930   13.742300       6.0000     15.9994
  375   4 H    1      15.616100   14.523200   14.914400       1.0000      1.0079
  376   4 H    1      10.647700   16.940700   18.721400       1.0000      1.0079
  377   2 O    8       6.041040    9.312360   15.905700       6.0000     15.9994
  378   4 H    1       8.676880    9.959300    2.242790       1.0000      1.0079
  379   4 H    1       9.514190    9.883910    0.911019       1.0000      1.0079
  380   2 O    8      14.789400    5.622300    2.776870       6.0000     15.9994
  381   4 H    1      13.943300    5.119620    2.935450       1.0000      1.0079
  382   4 H    1      15.052400    6.288420    3.391750       1.0000      1.0079
  383   2 O    8      16.881700   11.899200   14.515000       6.0000     15.9994
  384   4 H    1      16.523100   10.978700   14.372400       1.0000      1.0079
  385   4 H    1      16.239100   12.396900   13.904700       1.0000      1.0079
  386   2 O    8      11.045800    7.936180    9.025120       6.0000     15.9994
  387   4 H    1      10.434400    8.757030    9.083180       1.0000      1.0079
  388   4 H    1      10.773400    8.062180    9.974600       1.0000      1.0079
  389   2 O    8      18.078800    1.369150   10.080200       6.0000     15.9994
  390   4 H    1      17.300200    0.705411    9.819590       1.0000      1.0079
  391   4 H    1      18.582500    0.672384   10.446100       1.0000      1.0079
  392   2 O    8      18.004600    9.575800    4.946860       6.0000     15.9994
  393   4 H    1      18.764500    8.776610    4.673040       1.0000      1.0079
  394   4 H    1       1.566260   10.466000    0.325231       1.0000      1.0079
  395   2 O    8      10.832000   11.659700    3.415900       6.0000     15.9994
  396   4 H    1      11.469600   11.125000    3.292400       1.0000      1.0079
  397   4 H    1      11.033000   12.522100    3.138720       1.0000      1.0079
  398   2 O    8      13.322300   18.639400   14.648200       6.0000     15.9994
  399   4 H    1      13.369100    0.101645   15.583200       1.0000      1.0079
  400   4 H    1      13.496000    0.594909   14.096100       1.0000      1.0079
  401   2 O    8      10.991900    9.567700    0.543754       6.0000     15.9994
  402   4 H    1      10.792400    9.537920   18.506100       1.0000      1.0079
  403   4 H    1      11.947800    9.682430    1.033010       1.0000      1.0079
  404   2 O    8      17.036300    2.804980    3.364670       6.0000     15.9994
  405   4 H    1      17.366600    3.463560    3.995670       1.0000      1.0079
  406   4 H    1      17.356000    1.860730    3.100680       1.0000      1.0079
  407   2 O    8      15.172700    2.222900    9.810640       6.0000     15.9994
  408   4 H    1      14.330200    2.063310    9.328310       1.0000      1.0079
  409   4 H    1      15.672600    2.783330    9.167220       1.0000      1.0079
  410   2 O    8      18.020100    2.073220    6.418590       6.0000     15.9994
  411   4 H    1      17.808900    2.978840    6.277630       1.0000      1.0079
  412   4 H    1      17.518300    1.562980    5.712540       1.0000      1.0079
  413   2 O    8       6.670200   14.127700    9.809230       6.0000     15.9994
  414   4 H    1       5.795180   14.623800    9.947440       1.0000      1.0079
  415   4 H    1       6.249560   13.489800    9.062580       1.0000      1.0079
  416   2 O    8       4.513610   12.143800   13.216500       6.0000     15.9994
  417   4 H    1       4.861030   13.051400   13.295600       1.0000      1.0079
  418   4 H    1       5.429180   11.772300   12.882000       1.0000      1.0079
  419   2 O    8      13.399400    5.376260   10.299400       6.0000     15.9994
  420   4 H    1      14.375500    5.236150   10.686200       1.0000      1.0079
  421   4 H    1      17.465500    3.407320    7.921440       1.0000      1.0079
  422   2 O    8      15.399600   18.400200    9.301850       6.0000     15.9994
  423   4 H    1       2.337960   16.461700   13.295500       1.0000      1.0079
  424   4 H    1      14.878100   18.646400   10.152500       1.0000      1.0079
  425   2 O    8      11.321100    0.457190    0.505268       6.0000     15.9994
  426   4 H    1      11.790900    0.614837   18.118400       1.0000      1.0079
  427   4 H    1      15.132000    0.019804    1.621320       1.0000      1.0079
  428   2 O    8       5.209920    4.537530   11.699400       6.0000     15.9994
  429   4 H    1      18.479000   12.298900    4.769100       1.0000      1.0079
  430   4 H    1       5.744740    3.791870   11.198800       1.0000      1.0079
  431   2 O    8      15.623100   18.562300    2.416130       6.0000     15.9994
  432   4 H    1      15.112400   18.782200    3.141070       1.0000      1.0079
  433   4 H    1      15.497800   17.581000    2.314490       1.0000      1.0079
  434   2 O    8      13.150100    0.454484   10.949000       6.0000     15.9994
  435   4 H    1      13.102700    1.278720   11.560500       1.0000      1.0079
  436   4 H    1      12.533900   18.854900   11.537100       1.0000      1.0079
  437   2 O    8      11.028800    8.651250   16.258500       6.0000     15.9994
  438   4 H    1      11.063700    8.272300   15.373000       1.0000      1.0079
  439   4 H    1      11.656800    8.348490   16.914000       1.0000      1.0079
  440   2 O    8       3.557770   16.229700    6.166080       6.0000     15.9994
[...]
 flops  1904 x   128 x  1350         760015872000       0.0%    100.0%      0.0%
 flops  1913 x   128 x  1350         763608384000       0.0%    100.0%      0.0%
 flops  1904 x   128 x  1364         767897518080       0.0%    100.0%      0.0%
 flops  1913 x   128 x  1364         771527285760       0.0%    100.0%      0.0%
 flops  1904 x   128 x  1411         794357329920       0.0%    100.0%      0.0%
 flops  1913 x   128 x  1411         798112170240       0.0%    100.0%      0.0%
 flops    22 x    24 x    22         805948932096       0.0%    100.0%      0.0%
 flops  2312 x   128 x  1350         922876416000       0.0%    100.0%      0.0%
 flops     9 x    22 x   152         932260317120       0.0%    100.0%      0.0%
 flops    22 x     9 x   152         932341696704       0.0%    100.0%      0.0%
 flops  2312 x   128 x  1364         932446986240       0.0%    100.0%      0.0%
 flops  2339 x   128 x  1350         933653952000       0.0%    100.0%      0.0%
 flops  2339 x   128 x  1364         943336289280       0.0%    100.0%      0.0%
 flops  2312 x   128 x  1411         964576757760       0.0%    100.0%      0.0%
 flops  2339 x   128 x  1411         975841278720       0.0%    100.0%      0.0%
 flops    22 x    22 x   152        1592830184704       0.0%    100.0%      0.0%
 flops     9 x     9 x   128        2144713697280       0.0%    100.0%      0.0%
 flops  1904 x   128 x   128        2227332710400       0.0%    100.0%      0.0%
 flops  1913 x   128 x   128        2237861068800       0.0%    100.0%      0.0%
 flops  2312 x   128 x   128        2704618291200       0.0%    100.0%      0.0%
 flops  2339 x   128 x   128        2736203366400       0.0%    100.0%      0.0%
 flops     9 x    22 x   128        3925306598400       0.0%    100.0%      0.0%
 flops    22 x     9 x   128        3925649249280       0.0%    100.0%      0.0%
 flops    22 x    22 x   128        6706653409280       0.0%    100.0%      0.0%
 flops     9 x    32 x     9        8109920600064       0.0%    100.0%      0.0%
 flops    22 x    32 x     9       15080577988608       0.0%    100.0%      0.0%
 flops     9 x    32 x    22       15080577988608       0.0%    100.0%      0.0%
 flops    22 x    32 x    22       25790365827072       0.0%    100.0%      0.0%
 flops inhomo. stacks              21827440349568     100.0%      0.0%      0.0%
 flops total                       144.832909E+12      15.1%     84.9%      0.0%
 flops max/rank                     13.742807E+12      15.5%     84.5%      0.0%
 matmuls inhomo. stacks                    111195     100.0%      0.0%      0.0%
 matmuls total                         5451933096       0.0%    100.0%      0.0%
 number of processed stacks               7120002       1.3%     98.7%      0.0%
 average stack size                                     1.2     775.8       0.0
 marketing flops                   186.401698E+12
 -------------------------------------------------------------------------------
 # multiplications                           5353
 max memory usage/rank               4.126069E+09
 # max total images/rank                        3
 # max 3D layers                                1
 # MPI messages exchanged                  513888
 MPI messages size (bytes):
  total size                         3.331757E+12
  min size                           0.000000E+00
  max size                          49.829792E+06
  average size                       6.483430E+06
 MPI breakdown and total messages size (bytes):
             size <=      128                2646                        0
       128 < size <=     8192                   0                        0
      8192 < size <=    32768                 105                  3440640
     32768 < size <=   131072               71771               9405200896
    131072 < size <=  4194304              215206             215390221568
   4194304 < size <= 16777216              167280             751101477120
  16777216 < size                           56880            2355840044400
 -------------------------------------------------------------------------------

 *** WARNING in dbcsr_mm.F:290 :: Using a non-square number of MPI ranks ***
 *** might lead to poor performance. Used ranks: 12 Suggested: 9 25      ***

 -------------------------------------------------------------------------------
 -                                                                             -
 -                      DBCSR MESSAGE PASSING PERFORMANCE                      -
 -                                                                             -
 -------------------------------------------------------------------------------
 ROUTINE             CALLS      AVE VOLUME [Bytes]
 MP_Bcast              131                     12.
 MP_Allreduce        27249                     13.
 MP_Alltoall         16932                 739064.
 MP_ISend           117716                2673682.
 MP_IRecv           117716                2632337.
 -------------------------------------------------------------------------------

 -------------------------------------------------------------------------------
 -                                                                             -
 -                                DBM STATISTICS                               -
 -                                                                             -
 -------------------------------------------------------------------------------
    M  x    N  x    K                                          COUNT     PERCENT
 -------------------------------------------------------------------------------

 -------------------------------------------------------------------------------
 -                                                                             -
 -                                GRID STATISTICS                              -
 -                                                                             -
 -------------------------------------------------------------------------------
 LP    KERNEL             BACKEND                              COUNT     PERCENT
 1     collocate ortho    REF                              226439481      26.08%
 2     collocate ortho    REF                              186682346      21.50%
 1     integrate ortho    REF                              112950810      13.01%
 0     collocate ortho    REF                               95578367      11.01%
 2     integrate ortho    REF                               93119460      10.73%
 3     collocate ortho    REF                               62529867       7.20%
 0     integrate ortho    REF                               47675670       5.49%
 3     integrate ortho    REF                               31417697       3.62%
 4     collocate ortho    REF                                7114058       0.82%
 4     integrate ortho    REF                                4086441       0.47%
 5     integrate ortho    REF                                 443426       0.05%
 6     integrate ortho    REF                                 148527       0.02%
 7     integrate ortho    REF                                  16898       0.00%
 0     collocate general  REF                                  14496       0.00%
 0     integrate general  REF                                   7248       0.00%
 3     integrate general  REF                                   7248       0.00%
 -------------------------------------------------------------------------------

 MEMORY| Estimated peak process memory [MiB]                                3897

 -------------------------------------------------------------------------------
 ----                             MULTIGRID INFO                            ----
 -------------------------------------------------------------------------------
 count for grid        1:         233851          cutoff [a.u.]          600.00
 count for grid        2:         421033          cutoff [a.u.]          200.00
 count for grid        3:         685209          cutoff [a.u.]           66.67
 count for grid        4:         672111          cutoff [a.u.]           22.22
 count for grid        5:         121703          cutoff [a.u.]            7.41
 total gridlevel count  :        2133907

 -------------------------------------------------------------------------------
 -                                                                             -
 -                         MESSAGE PASSING PERFORMANCE                         -
 -                                                                             -
 -------------------------------------------------------------------------------

 ROUTINE             CALLS      AVE VOLUME [Bytes]
 MP_Group                5
 MP_Bcast             8358                 144058.
 MP_Allreduce        22709                   5224.
 MP_Sync                73
 MP_Alltoall          6549              189136208.
 MP_SendRecv            44                  15094.
 MP_ISendRecv        20856                 709800.
 MP_Wait             44948
 MP_ISend            20288                6592049.
 MP_IRecv            20288                6588737.
 MP_Recv               462                2167808.
 -------------------------------------------------------------------------------


 -------------------------------------------------------------------------------
 -                                                                             -
 -                           R E F E R E N C E S                               -
 -                                                                             -
 -------------------------------------------------------------------------------
 
 CP2K version 2022.2, the CP2K developers group (2022).
 CP2K is freely available from https://www.cp2k.org/ .

 Kuehne,Thomas D.; Iannuzzi,Marcella; Del Ben,Mauro;
 Rybkin,Vladimir V.; Seewald,Patrick; Stein,Frederick; Laino,Teodoro;
 Khaliullin,Rustam Z.; Schuett,Ole; Schiffmann,Florian; Golze,Dorothea;
 Wilhelm,Jan; Chulkov,Sergey; Bani-Hashemian,Mohammad Hossein;
 Weber,Valery; Borstnik,Urban; Taillefumier,Mathieu;
 Jakobovits,Alice Shoshana; Lazzaro,Alfio; Pabst,Hans; Mueller,Tiziano;
 Schade,Robert; Guidon,Manuel; Andermatt,Samuel; Holmberg,Nico;
 Schenter,Gregory K.; Hehn,Anna; Bussy,Augustin; Belleflamme,Fabian;
 Tabacchi,Gloria; Gloess,Andreas; Lass,Michael; Bethune,Iain;
 Mundy,Christopher J.; Plessl,Christian; Watkins,Matt;
 VandeVondele,Joost; Krack,Matthias; Hutter,Juerg. 
 The Journal of Chemical Physics, 152 (19), (2020). 
 CP2K: An electronic structure and molecular dynamics software package -
 Quickstep: Efficient and accurate electronic structure calculations.
 https://doi.org/10.1063/5.0007045

 Goerigk, Lars; Hansen, Andreas; Bauer, Christoph; Ehrlich, Stephan;
 Najibi, Asim; Grimme, Stefan. , 19 (48), (2017). 
 A look at the density functional theory zoo with the advanced GMTKN55 database
 for general main group thermochemistry, kinetics and noncovalent interactions.
 https://doi.org/10.1039/C7CP04913G

 Schuett, Ole; Messmer, Peter; Hutter, Juerg; VandeVondele, Joost. 
 Electronic Structure Calculations on Graphics Processing Units, John
 Wiley & Sons, Ltd, 173-190 (2016). 
 GPU-Accelerated Sparse Matrix-Matrix Multiplication for
 Linear Scaling Density Functional Theory.
 https://doi.org/10.1002/9781118670712.ch8

 Heinecke, A; Henry, G; Hutchinson, M; Pabst, H. 
 Proceedings of Intl. Supercomputing Conference, 981-991 (2016). 
 LIBXSMM: Accelerating Small Matrix Multiplications
 by Runtime Code Generation.
 https://doi.org/10.1109/SC.2016.83

 Borstnik, U; VandeVondele, J; Weber, V; Hutter, J. 
 PARALLEL COMPUTING, 40 (5-6), 47-58 (2014). 
 Sparse matrix multiplication: The distributed block-compressed sparse
 row library.
 https://doi.org/10.1016/j.parco.2014.03.012

 Hutter, J; Iannuzzi, M; Schiffmann, F; VandeVondele, J. 
 WIREs Comput Mol Sci., 4 (1), 15-25 (2014). 
 CP2K: atomistic simulations of condensed matter systems.
 https://doi.org/10.1002/wcms.1159

 Marek, A; Blum, V; Johanni, R; Havu, V; Lang, B; Auckenthaler, T;
 Heinecke, A; Bungartz, H; Lederer, H. 
 Journal of Physics: Condensed Matter, 26 (21), (2014). 
 The ELPA library: scalable parallel eigenvalue solutions for
 electronic structure
 theory and computational science.
 https://doi.org/10.1088/0953-8984/26/21/213201

 Grimme, S; Ehrlich, S; Goerigk, L. 
 JOURNAL OF COMPUTATIONAL CHEMISTRY, 32, 1456 (2011). 
 Effect of the damping function in dispersion corrected density functional theory.
 https://doi.org/10.1002/jcc.21759

 Grimme, S; Antony, J; Ehrlich, S; Krieg, H. 
 JOURNAL OF CHEMICAL PHYSICS, 132 (15), 154104 (2010). 
 A consistent and accurate ab initio parametrization of density
 functional dispersion correction (DFT-D) for the 94 elements H-Pu.
 https://doi.org/10.1063/1.3382344

 VandeVondele, J; Hutter, J. 
 JOURNAL OF CHEMICAL PHYSICS, 127 (11), 114105 (2007). 
 Gaussian basis sets for accurate calculations on molecular systems in
 gas and condensed phases.
 https://doi.org/10.1063/1.2770708

 Krack, M. 
 THEORETICAL CHEMISTRY ACCOUNTS, 114 (1-3), 145-152 (2005). 
 Pseudopotentials for H to Kr optimized for gradient-corrected
 exchange-correlation functionals.
 https://doi.org/10.1007/s00214-005-0655-y

 VandeVondele, J; Krack, M; Mohamed, F; Parrinello, M; Chassaing, T;
 Hutter, J. COMPUTER PHYSICS COMMUNICATIONS, 167 (2), 103-128 (2005). 
 QUICKSTEP: Fast and accurate density functional calculations using a
 mixed Gaussian and plane waves approach.
 https://doi.org/10.1016/j.cpc.2004.12.014

 Frigo, M; Johnson, SG. 
 PROCEEDINGS OF THE IEEE, 93 (2), 216-231 (2005). 
 The design and implementation of FFTW3.
 https://doi.org/10.1109/JPROC.2004.840301

 VandeVondele, J; Hutter, J. 
 JOURNAL OF CHEMICAL PHYSICS, 118 (10), 4365-4369 (2003). 
 An efficient orbital transformation method for electronic structure
 calculations.
 https://doi.org/10.1063/1.1543154

 Hartwigsen, C; Goedecker, S; Hutter, J. 
 PHYSICAL REVIEW B, 58 (7), 3641-3662 (1998). 
 Relativistic separable dual-space Gaussian pseudopotentials from H to Rn.
 https://doi.org/10.1103/PhysRevB.58.3641

 Zhang, YK; Yang, WT. 
 PHYSICAL REVIEW LETTERS, 80 (4), 890-890 (1998). 
 Comment on Generalized gradient approximation made simple.
 https://doi.org/10.1103/PhysRevLett.80.890

 Lippert, G; Hutter, J; Parrinello, M. 
 MOLECULAR PHYSICS, 92 (3), 477-487 (1997). 
 A hybrid Gaussian and plane wave density functional scheme.
 https://doi.org/10.1080/002689797170220

 Perdew, JP; Burke, K; Ernzerhof, M. 
 PHYSICAL REVIEW LETTERS, 77 (18), 3865-3868 (1996). 
 Generalized gradient approximation made simple.
 https://doi.org/10.1103/PhysRevLett.77.3865

 Goedecker, S; Teter, M; Hutter, J. 
 PHYSICAL REVIEW B, 54 (3), 1703-1710 (1996). 
 Separable dual-space Gaussian pseudopotentials.
 https://doi.org/10.1103/PhysRevB.54.1703


 -------------------------------------------------------------------------------
 -                                                                             -
 -                                T I M I N G                                  -
 -                                                                             -
 -------------------------------------------------------------------------------
 SUBROUTINE                       CALLS  ASD         SELF TIME        TOTAL TIME
                                MAXIMUM       AVERAGE  MAXIMUM  AVERAGE  MAXIMUM
 CP2K                                 1  1.0    0.793    0.874 4206.421 4206.429
 qs_forces                            1  2.0    0.001    0.001 4203.691 4203.698
 qs_energies                          1  3.0    0.000    0.000 4190.660 4190.665
 scf_env_do_scf                       1  4.0    0.001    0.002 4169.317 4169.326
 scf_env_do_scf_inner_loop          420  5.0    0.013    0.032 3881.999 3883.157
 rebuild_ks_matrix                  421  7.0    0.002    0.002 2337.746 2341.988
 qs_ks_build_kohn_sham_matrix       421  8.0    0.057    0.060 2337.744 2341.986
 qs_ks_update_qs_env                441  6.0    0.003    0.003 2331.267 2335.460
 qs_vxc_create                      421  9.0    0.010    0.011 1552.401 1556.752
 pw_transfer                       6742 10.8    0.663    0.721 1411.820 1421.677
 fft_wrap_pw1pw2                   5900 11.9    0.093    0.099 1388.844 1398.641
 fft_wrap_pw1pw2_600               3372 13.6  122.843  129.415 1327.712 1334.527
 qs_rho_update_rho_low              421  6.0    0.002    0.002 1298.153 1298.847
 calculate_rho_elec                 421  7.0    9.150    9.840 1298.151 1298.845
 xc_rho_set_and_dset_create         421 11.0   15.297   20.430 1135.935 1152.537
 fft3d_ps                          5900 13.9  594.652  619.065  974.636  992.638
 xc_vxc_pw_create                   211 10.0   11.503   13.477  979.648  983.999
 xc_pw_derive                      1896 12.0    0.036    0.039  870.181  878.857
 grid_collocate_task_list           421  8.0  731.155  747.381  731.155  747.381
 xc_exc_calc                        210 10.0    4.433    4.534  572.743  572.744
 density_rs2pw                      421  8.0    0.034    0.036  544.827  572.044
 sum_up_and_integrate               211  9.0    3.012    3.081  528.240  528.379
 xc_functional_eval                 421 12.0    0.007    0.009  514.789  525.454
 pbe_lda_eval                       421 13.0  514.782  525.447  514.782  525.447
 integrate_v_rspace                 211 10.0    0.008    0.008  525.228  525.396
 dbcsr_multiply_generic            5353 10.7    0.466    0.500  515.294  519.710
 qs_scf_new_mos                     420  6.0    0.003    0.005  424.482  429.995
 qs_scf_loop_do_ot                  420  7.0    0.004    0.005  424.479  429.990
 multiply_cannon                   5353 11.7    0.565    0.615  398.480  418.884
 multiply_cannon_loop              5353 12.7    0.520    0.578  375.501  395.882
 xc_pw_divergence                   211 11.0    0.012    0.013  382.223  389.628
 multiply_cannon_multrec          32118 13.7  351.262  386.451  351.348  386.532
 ot_scf_mini                        420  8.0    0.012    0.012  354.493  357.009
 grid_integrate_task_list           211 11.0  321.953  327.391  321.953  327.391
 init_scf_loop                       21  5.0    0.001    0.001  287.246  287.477
 rs_pw_transfer                    3164 10.0    0.056    0.060  239.733  265.926
 x_to_yz                           2950 15.8  178.176  181.605  253.692  263.223
 potential_pw2rs                    211 11.0    0.486    0.515  193.172  193.226
 pw_scatter_p                      2950 14.8  164.143  177.859  164.143  177.859
 ot_mini                            420  9.0    0.002    0.003  147.162  149.787
 mp_alltoall_z22v                  5900 15.9  127.025  143.507  127.025  143.507
 rs_pw_transfer_RS2PW_600           423 10.0   58.920   68.749  120.088  142.655
 yz_to_x                           2950 14.1   74.630   76.094  126.138  136.483
 mp_waitany                       20288 12.0   91.154  128.020   91.154  128.020
 pw_gather_p                       2950 13.1  122.085  126.320  122.085  126.320
 prepare_preconditioner              21  6.0    0.000    0.000   98.352   98.717
 make_preconditioner                 21  7.0    0.000    0.000   98.352   98.717
 pw_derive                         1899 13.0   89.635   94.341   89.635   94.341
 -------------------------------------------------------------------------------

 The number of warnings for this run is : 2
 
 -------------------------------------------------------------------------------
  **** **** ******  **  PROGRAM ENDED AT                 2024-05-08 17:43:04.079
 ***** ** ***  *** **   PROGRAM RAN ON                                    node05
 **    ****   ******    PROGRAM RAN BY                                  hw010504
 ***** **    ** ** **   PROGRAM PROCESS ID                               1144167
  **** **  *******  **  PROGRAM STOPPED IN         /nas/hw010504/STK/DFT/000.000
