     198
 i =        0, time =        0.000, E =     -1206.1297403658
 Cs         3.8065020000        3.7246720000        3.6689820000
 Cs        10.9961170000       11.8055630000       10.3063280000
 Cs         6.1065920000        7.8382910000        2.2944360000
 Cl        11.9607220000        3.0338580000        4.9151660000
 Cl         8.8420680000        4.0082580000        3.0968320000
 Cl        12.0060480000        2.9966650000       10.5078450000
  O         9.2428350000        7.0981070000        5.5897780000
  H         9.1723620000        6.1307390000        5.6013020000
  H         8.3880270000        7.4874740000        5.8318420000
  O        10.8977730000        9.0414410000        6.9146800000
  H        11.5544190000        8.5981420000        6.3550360000
  H        10.7934620000        9.9610490000        6.6242680000
  O         9.0633170000        1.4041960000        5.5841670000
  H         9.6771400000        0.9984760000        6.2162370000
  H         9.1981150000        1.0138130000        4.7064820000
  O         9.1565620000        7.7352020000        1.8785100000
  H         9.0849660000        7.0879810000        1.1595670000
  H         9.1030460000        7.2775420000        2.7320800000
  O         4.7898450000       10.0920740000        4.2692620000
  H         4.0844050000       10.0992390000        3.6035270000
  H         4.6872800000        9.3149920000        4.8406830000
  O         8.0940960000       12.9364660000       11.8387380000
  H         8.9555630000       13.0001890000       12.2800040000
  H         8.2167980000       13.0029940000       10.8788340000
  O         4.9629760000       12.5954510000        9.1499790000
  H         4.2800600000       13.0006110000        8.5928700000
  H         4.8083250000       11.6395800000        9.2073520000
  O         4.4550510000       13.0054880000       13.0018660000
  H         5.4248360000       12.9851050000       13.0008040000
  H         4.1166580000       12.3235690000       12.4007220000
  O        12.7573030000        8.1754330000       10.0338990000
  H        12.9063710000        9.1339070000       10.0316360000
  H        12.9980910000        7.8087230000        9.1687730000
  O        12.9588720000        1.7580020000        1.9361280000
  H        13.0010350000        0.9970930000        2.5362440000
  H        13.0009560000        1.4482930000        1.0178650000
  O         0.9985380000        4.6014100000        4.5813230000
  H         0.9980040000        5.2560280000        5.2971270000
  H         0.9984980000        3.7083400000        4.9599050000
  O         2.8319450000        0.9860860000        4.6863280000
  H         3.1477340000        0.9990260000        5.6033940000
  H         1.8620370000        0.9965560000        4.6781720000
  O         5.4343980000        7.3637750000       10.2870400000
  H         6.3595560000        7.1919950000       10.5225700000
  H         4.8749860000        6.6507300000       10.6327610000
  O        13.0020890000       11.9268750000        7.4170370000
  H        12.2377150000       12.5027100000        7.5752950000
  H        12.9740190000       11.1762780000        8.0308080000
  O        12.6046010000        4.5614850000        1.4958710000
  H        13.0024250000        5.2906560000        0.9949270000
  H        11.7724160000        4.2957490000        1.0742680000
  O        12.9720160000        5.5631010000        6.8844730000
  H        12.0515770000        5.4596450000        7.1725500000
  H        13.0047310000        6.1454660000        6.1094380000
  O        10.2397190000       10.5144150000        0.9951280000
  H        10.6573980000       10.1682840000        1.7992660000
  H         9.2751350000       10.4824090000        1.0923470000
  O         8.9461470000        6.6969880000        8.9434110000
  H         9.7213240000        6.6098810000        8.3668590000
  H         8.9285940000        7.5867240000        9.3293640000
  O         6.7089400000        9.9903410000       10.9980630000
  H         7.6292420000       10.2058730000       10.7801410000
  H         6.3054570000       10.7354320000       11.4702260000
  O         2.2096750000        9.7155670000        1.0005020000
  H         2.5790450000        8.8186470000        0.9998080000
  H         2.9321760000       10.3627830000        0.9992240000
  O         3.7574590000       12.9962110000        2.1963400000
  H         4.3306620000       12.9918990000        1.4138320000
  H         4.3041600000       13.0000090000        2.9975900000
  O        11.9160880000        6.9063000000        3.0898380000
  H        11.5833500000        6.1710280000        3.6279480000
  H        12.4724710000        7.4819180000        3.6375610000
  O        12.5639960000       12.5455070000        1.7355420000
  H        13.0007460000       13.0006990000        0.9986900000
  H        12.7731280000       13.0005710000        2.5662520000
  O         2.4326110000        6.6945950000        3.2616290000
  H         1.5628740000        6.9895310000        2.9494260000
  H         2.9736760000        7.4670140000        3.4885970000
  O         9.6215120000       12.4852250000        3.1287740000
  H         9.0594310000       13.0002090000        3.7285710000
  H         9.8047270000       13.0054960000        2.3308720000
  O         3.7578440000        3.1620250000        7.5105040000
  H         3.0950580000        3.8686590000        7.4627170000
  H         4.4034180000        3.2753480000        6.7954580000
  O         0.9992650000        6.4015910000       12.8160770000
  H         1.8825930000        6.0455410000       13.0000850000
  H         1.0004550000        6.8376000000       11.9495940000
  O         8.4406380000       10.2260140000        4.4251330000
  H         9.2372430000        9.7051310000        4.2380440000
  H         7.6540220000        9.7100890000        4.1885860000
  O         9.2420420000        0.9927380000        1.8179340000
  H         9.0574450000        1.4730310000        0.9956550000
  H        10.1879250000        1.0553330000        2.0235660000
  O        13.0101380000        8.0604850000       12.9433280000
  H        12.8907000000        9.0215910000       12.8893720000
  H        12.1433130000        7.6301240000       13.0089250000
  O         1.1955590000        1.2015110000        1.0840620000
  H         2.1405030000        0.9943600000        1.0128630000
  H         0.9988840000        1.5095430000        1.9825790000
  O         2.8405980000       12.4438360000        5.9456150000
  H         3.6207760000       13.0002460000        5.7951800000
  H         2.0465830000       13.0004190000        5.9711760000
  O         5.7904610000        4.8580800000        1.5846630000
  H         4.9529560000        5.0354090000        1.1285490000
  H         6.5309900000        5.0769250000        0.9976180000
  O         3.9928460000        8.2424690000       13.0017070000
  H         3.3582510000        8.4200920000       12.2899220000
  H         4.7063730000        8.8988000000       12.9699680000
  O         6.3615780000       11.0550270000        1.9701480000
  H         6.4545590000       11.1122570000        1.0063120000
  H         6.8297840000       11.7965080000        2.3847410000
  O         1.0346400000        1.0484840000        7.6159340000
  H         0.9956950000        1.9398310000        7.2352970000
  H         1.7677310000        0.9990840000        8.2492080000
  O         6.3542640000        6.2150700000        7.8347390000
  H         5.6256260000        5.5862460000        7.9554290000
  H         6.0280190000        7.0032170000        7.3729080000
  O         1.9127490000        4.6776340000        1.3026960000
  H         2.3039640000        3.8493190000        0.9837230000
  H         0.9939370000        4.7396450000        0.9980050000
  O         4.0421360000        4.0132310000       12.8816570000
  H         4.7031230000        3.3135190000       13.0016560000
  H         4.4867760000        4.8742980000       12.8397310000
  O         6.4658900000        5.7009180000        4.6958910000
  H         5.5540090000        6.0302950000        4.7256110000
  H         6.5524350000        4.9351720000        5.2849920000
  O         2.1854720000        5.6579350000        9.4999950000
  H         1.2880990000        5.3849660000        9.2527920000
  H         2.4997490000        5.1082520000       10.2348260000
  O        12.8292480000       12.8220360000       12.8666060000
  H        11.8856050000       13.0015230000       13.0015990000
  H        13.0008950000       11.8767190000       13.0000640000
  O        12.4479590000       10.2845170000        4.2249880000
  H        12.5746820000       11.1161140000        4.7079870000
  H        13.0038550000       10.2843540000        3.4300810000
  O         6.9243330000        1.5303740000       12.3953500000
  H         7.3541010000        2.2463700000       12.8888580000
  H         6.3836880000        0.9994550000       13.0009280000
  O         1.0107310000        2.0700310000       11.3764930000
  H         0.9946450000        2.7119700000       10.6494740000
  H         1.0551680000        1.1715750000       11.0135870000
  O         6.8963700000        4.3719830000       10.2115890000
  H         6.5395500000        3.4788570000       10.3377090000
  H         7.7434830000        4.4505070000       10.6775620000
  O         2.9906970000        7.0828750000        7.1474050000
  H         3.3578340000        7.9753920000        7.0498210000
  H         3.3031160000        6.5233470000        6.4192420000
  O         1.6990480000       10.8423420000       12.0265770000
  H         0.9971290000       10.1737190000       11.9926160000
  H         1.3175170000       11.7199840000       11.8682210000
  O         9.3103960000        1.0525810000       10.2792500000
  H         8.9191980000        1.9152740000       10.0703870000
  H         9.4823120000        0.9977320000       11.2323160000
  O         7.3551020000        9.5306540000        7.5459160000
  H         8.1603090000        9.9407100000        7.8986130000
  H         6.6174480000        9.6901840000        8.1552710000
  O         5.3023140000        1.1412680000        1.2127670000
  H         5.1633710000        2.0709160000        1.4522440000
  H         6.2372550000        0.9992560000        0.9968580000
  O         6.5380420000        1.5477950000        7.7692410000
  H         5.7468970000        0.9993120000        7.8882240000
  H         7.3308470000        0.9991130000        7.8755620000
  O        10.2457150000        5.6628920000       11.3466210000
  H        10.9751280000        6.1083600000       10.8879110000
  H        10.5362300000        5.3954890000       12.2326200000
  O         4.2127870000        1.7463370000       10.6600780000
  H         3.9421950000        0.9969000000       10.1068830000
  H         3.8299690000        2.5643060000       10.3061370000
  O         9.5310990000        3.8504150000        7.2910030000
  H         8.6560910000        3.5103820000        7.5352120000
  H        10.2157490000        3.3462830000        7.7579110000
  O         1.2755430000       11.6488490000        8.3743190000
  H         1.1037410000       10.9481960000        7.7258830000
  H         1.9706630000       11.3598920000        8.9860460000
  O         0.9998990000        9.1765120000        4.9916320000
  H         0.9999330000        8.3081840000        5.4239580000
  H         1.7912340000        9.6702820000        5.2578630000
  O         5.8396250000        1.5188040000        4.3662790000
  H         6.3240230000        2.1017050000        4.9716590000
  H         6.4703560000        0.9956920000        3.8472130000
  O         6.4988980000       12.0682250000        5.4325580000
  H         6.1814870000       11.8400480000        6.3202990000
  H         6.7446820000       13.0062530000        5.4082490000
  O         9.7590500000        9.4425520000       12.5296810000
  H        10.2729350000       10.1732940000       12.9076200000
  H        10.1442460000        9.1828820000       11.6781560000
  O         8.9886140000       12.5668830000        7.1261780000
  H         9.0094220000       13.0003600000        7.9936830000
  H         9.6215550000       13.0006060000        6.5327410000
  O         1.3390070000        8.5361040000        9.6730120000
  H         0.9960690000        8.2986860000        8.7972690000
  H         2.3065050000        8.5952180000        9.6362480000
  O         7.9271100000        6.4818800000       12.8068770000
  H         7.7900810000        7.4224720000       13.0002910000
  H         7.1152070000        5.9894400000       13.0049010000
  O         0.9996100000       11.7975590000        2.5434030000
  H         1.2079360000       12.3448310000        3.3167030000
  H         1.0057990000       12.3493430000        1.7456600000
     198
 i =        1, time =        0.500, E =     -1206.1226945993
 Cs         3.8061279757        3.7235902204        3.6702590683
 Cs        10.9948756293       11.8053959561       10.3072281397
 Cs         6.1060726352        7.8379661259        2.2947732500
 Cl        11.9595423362        3.0354880574        4.9149667881
 Cl         8.8410036413        4.0091494117        3.0945496875
 Cl        12.0042071471        2.9952947030       10.5057687025
  O         9.2448040660        7.0957398343        5.5890953762
  H         9.1890171343        6.1252680334        5.5976455561
  H         8.4024255650        7.4810508364        5.8382038691
  O        10.8969579830        9.0435880404        6.9144913008
  H        11.5571082665        8.5885573769        6.3486831929
  H        10.7919804974        9.9679118548        6.6224011106
  O         9.0669710860        1.4040508946        5.5880765840
  H         9.6826178542        1.0016847274        6.2145850739
  H         9.1867060591        1.0238182461        4.7039727921
  O         9.1573123370        7.7355956219        1.8796238981
  H         9.0857535998        7.0857495295        1.1547206287
  H         9.1113885119        7.2807490114        2.7367957616
  O         4.7897395359       10.0958556512        4.2666907657
  H         4.0847050673       10.0954027176        3.6161617750
  H         4.6873952766        9.3103346749        4.8170309072
  O         8.0935298141       12.9360517719       11.8360168057
  H         8.9621056772       12.9946925907       12.2918071870
  H         8.2254833148       13.0143835903       10.8832547993
  O         4.9598947217       12.5958186707        9.1503447448
  H         4.2808469549       12.9996282866        8.5785805271
  H         4.8064210330       11.6447905753        9.1959992648
  O         4.4552658713       13.0039811486       13.0011536896
  H         5.4355022298       12.9921798372       12.9940173736
  H         4.1224631557       12.3318704666       12.4176399131
  O        12.7594135042        8.1774909279       10.0342138720
  H        12.8990034652        9.1267541528       10.0466908394
  H        13.0037535760        7.8033215657        9.1581334910
  O        12.9562803873        1.7581310499        1.9324283444
  H        13.0075934322        0.9935878733        2.5318288489
  H        13.0162114934        1.4525705159        1.0185101984
  O         0.9982438055        4.6009775885        4.5779678720
  H         0.9976776123        5.2562391114        5.2986737245
  H         0.9988418000        3.6952993858        4.9558849018
  O         2.8298839841        0.9847318468        4.6849202869
  H         3.1433909607        0.9958084729        5.6053920973
  H         1.8573003426        0.9957185458        4.6647829874
  O         5.4309346722        7.3631815804       10.2860470638
  H         6.3549381158        7.1829151431       10.5271804033
  H         4.8782385784        6.6332802201       10.6362355941
  O        13.0048940869       11.9261927402        7.4134482933
  H        12.2357938288       12.4987923606        7.5803618596
  H        12.9695640525       11.1789548275        8.0350933245
  O        12.6042941645        4.5610136366        1.4981915995
  H        12.9927598776        5.3000604689        0.9993141218
  H        11.7904099042        4.3044159218        1.0749197227
  O        12.9720698495        5.5632174963        6.8809268108
  H        12.0491967573        5.4449470120        7.1646621670
  H        12.9957947043        6.1428223820        6.1198488008
  O        10.2391455866       10.5126806749        0.9988049053
  H        10.6528729062       10.1792977060        1.8010603929
  H         9.2747757023       10.4932707518        1.0957684275
  O         8.9450942674        6.6957416462        8.9419963885
  H         9.7268172361        6.6191436515        8.3708392283
  H         8.9199212933        7.5871111840        9.3269091788
  O         6.7093018272        9.9889310774       10.9996987481
  H         7.6220417784       10.2124468341       10.7724990239
  H         6.3141848470       10.7235530386       11.4704872787
  O         2.2080821504        9.7177635272        0.9988960730
  H         2.5859107469        8.8293092347        1.0097574295
  H         2.9383472354       10.3754639590        1.0036110823
  O         3.7580584212       12.9958371032        2.1983374754
  H         4.3334020886       12.9718843346        1.4204805212
  H         4.3123894081       13.0183102740        2.9962207842
  O        11.9139266880        6.9047653882        3.0909787409
  H        11.5687371272        6.1761534604        3.6223552961
  H        12.4837507407        7.4744128187        3.6303649669
  O        12.5624143488       12.5438061614        1.7337533339
  H        12.9851989275       12.9972480435        0.9910640728
  H        12.7606732413       13.0152061895        2.5604595535
  O         2.4330346125        6.6910334770        3.2622822691
  H         1.5608663189        6.9794626575        2.9509163512
  H         2.9900629548        7.4622795848        3.4839440634
  O         9.6232064998       12.4885714535        3.1245343594
  H         9.0630553672       12.9912251670        3.7265123196
  H         9.7896339309       13.0048218454        2.3260506861
  O         3.7604245898        3.1634721977        7.5079834005
  H         3.0922566844        3.8640705502        7.4590116298
  H         4.4074617910        3.2835111968        6.7945968983
  O         1.0028596052        6.4007755846       12.8172955426
  H         1.8759810372        6.0503601312       13.0132814678
  H         1.0102452870        6.8281517620       11.9470618398
  O         8.4417914909       10.2248372873        4.4235107608
  H         9.2365344945        9.6954659726        4.2417354493
  H         7.6560564837        9.7103697108        4.1855759975
  O         9.2419666036        0.9882797288        1.8170819333
  H         9.0636833205        1.4652199981        0.9874733239
  H        10.1896080912        1.0672526000        2.0263183164
  O        13.0103848908        8.0595106214       12.9444072947
  H        12.8939721394        9.0080986997       12.8925184290
  H        12.1491843254        7.6229228419       13.0077440263
  O         1.1971261201        1.2012330394        1.0839367458
  H         2.1327819023        0.9957117261        1.0038543157
  H         0.9920765007        1.5058476279        1.9912205783
  O         2.8391015672       12.4422718736        5.9458910368
  H         3.6111268997       12.9963440280        5.7979009442
  H         2.0443356462       12.9991436176        5.9943274088
  O         5.7924617635        4.8577557452        1.5810015341
  H         4.9576253821        5.0474599884        1.1361013859
  H         6.5138913877        5.0878103497        0.9843291039
  O         3.9951056218        8.2415479795       13.0008165586
  H         3.3592731880        8.4266524529       12.2997422914
  H         4.7020972597        8.9076698151       12.9776785610
  O         6.3587768573       11.0532808063        1.9729843483
  H         6.4664271070       11.1187655606        0.9837004373
  H         6.8244144499       11.7954509243        2.3876855616
  O         1.0344130741        1.0502521912        7.6108220776
  H         1.0052717253        1.9213431815        7.2423693127
  H         1.7661266803        0.9875578357        8.2485065101
  O         6.3521228645        6.2138593574        7.8358417428
  H         5.6328114459        5.5886673156        7.9548620597
  H         6.0337073883        6.9881521264        7.3848675828
  O         1.9111176244        4.6779124702        1.3034836629
  H         2.2988471766        3.8545176007        0.9820579189
  H         0.9861274657        4.7422252701        0.9989577860
  O         4.0401847525        4.0124827668       12.8820694306
  H         4.7186343088        3.3077509675       12.9937215668
  H         4.4894645575        4.8683233185       12.8489171420
  O         6.4648773040        5.7029940680        4.6935754707
  H         5.5422692906        6.0201524177        4.7301234644
  H         6.5501355779        4.9369485892        5.2939556053
  O         2.1826091715        5.6552595136        9.4985402069
  H         1.2788921915        5.3902232016        9.2438643813
  H         2.5113608007        5.1091645710       10.2332980279
  O        12.8282640822       12.8212354266       12.8701218185
  H        11.8946994129       12.9916311073       12.9988202544
  H        13.0089192717       11.8843333150       12.9980366860
  O        12.4481144828       10.2834658510        4.2227064424
  H        12.5703899299       11.1231714093        4.7054444052
  H        13.0092605560       10.2841180867        3.4349578191
  O         6.9275967526        1.5304384371       12.3945394787
  H         7.3559531105        2.2481293169       12.9024205844
  H         6.3896492244        1.0071259770       13.0053385747
  O         1.0114793550        2.0741563110       11.3754952392
  H         0.9980145796        2.7070786392       10.6632748451
  H         1.0597766488        1.1725307767       11.0188178432
  O         6.8959789172        4.3692545270       10.2079097878
  H         6.5356883047        3.4728781383       10.3302353441
  H         7.7443194913        4.4470025681       10.6770403475
  O         2.9911567132        7.0831167284        7.1436906565
  H         3.3519004957        7.9684076814        7.0541002624
  H         3.3000401180        6.5319065015        6.4199535157
  O         1.6979537725       10.8413418931       12.0280148813
  H         1.0109936148       10.1560679536       12.0008227531
  H         1.3233662228       11.7206522791       11.8635980607
  O         9.3082169805        1.0516808903       10.2762801515
  H         8.9079788487        1.9107429168       10.0659284485
  H         9.4720687101        1.0130518532       11.2271599676
  O         7.3507285120        9.5328421989        7.5455834971
  H         8.1715829860        9.9334769457        7.8922670445
  H         6.6070349814        9.6894599531        8.1556300840
  O         5.2970272290        1.1403660297        1.2137764457
  H         5.1559126757        2.0718391971        1.4718335179
  H         6.2377833085        1.0071809574        0.9921970661
  O         6.5399352238        1.5499268391        7.7688873165
  H         5.7542281038        0.9923071716        7.8791398783
  H         7.3384170276        1.0034392420        7.8638986953
  O        10.2451720686        5.6602370169       11.3435309371
  H        10.9660745569        6.0953678837       10.8975769719
  H        10.5365999099        5.3947941648       12.2325061868
  O         4.2126644671        1.7464517971       10.6585803417
  H         3.9437318818        0.9876960098       10.0970188269
  H         3.8240391311        2.5633686210       10.3089839841
  O         9.5298642507        3.8477230557        7.2875202702
  H         8.6572256998        3.5204376576        7.5307303003
  H        10.2386405213        3.3450477873        7.7558368775
  O         1.2748005846       11.6502646064        8.3768088661
  H         1.1121414247       10.9391574967        7.7171143241
  H         1.9572526804       11.3577396821        9.0021422486
  O         1.0007455087        9.1787106083        4.9916122937
  H         1.0096177170        8.3087016786        5.4174293346
  H         1.7983975252        9.6606717758        5.2535681090
  O         5.8413080951        1.5191124217        4.3645338393
  H         6.3312150083        2.0952769301        4.9808132628
  H         6.4707016546        0.9937408793        3.8501009329
  O         6.4991336247       12.0668484206        5.4288022528
  H         6.1758904322       11.8362512814        6.3233640968
  H         6.7483251318       13.0012519956        5.4011895344
  O         9.7614632162        9.4427411849       12.5372252688
  H        10.2648636059       10.1706179524       12.9193830303
  H        10.1385298991        9.1931770487       11.6880337381
  O         8.9898223983       12.5668502187        7.1253410629
  H         9.0118079486       13.0096368284        8.0037669223
  H         9.6328368287       12.9898662983        6.5300421645
  O         1.3415724701        8.5356623608        9.6704530894
  H         0.9991122659        8.3026762074        8.7995800633
  H         2.3132750815        8.5745482161        9.6167929871
  O         7.9277087515        6.4849296942       12.8056081395
  H         7.7903341333        7.4109991513       13.0146378403
  H         7.1195847897        5.9835343030       13.0041592532
  O         0.9951957379       11.8000660800        2.5447378437
  H         1.2083171171       12.3640753098        3.3130913176
  H         1.0105701274       12.3423667103        1.7477099790
     198
 i =        2, time =        1.000, E =     -1206.1066288086
 Cs         3.8057463393        3.7225061881        3.6715275067
 Cs        10.9936278366       11.8052243603       10.3081128803
 Cs         6.1055539541        7.8376368663        2.2951092347
 Cl        11.9583845093        3.0370822970        4.9147748836
 Cl         8.8398957679        4.0100616499        3.0922385356
 Cl        12.0023496448        2.9939059215       10.5036738957
  O         9.2468791959        7.0933676717        5.5883213597
  H         9.2045857052        6.1201789011        5.5940134277
  H         8.4163368232        7.4736808322        5.8454963688
  O        10.8961853649        9.0457724646        6.9143832994
  H        11.5579599618        8.5809326148        6.3424512787
  H        10.7914076038        9.9730455196        6.6193714607
  O         9.0704463149        1.4038324933        5.5920090732
  H         9.6889887508        1.0057094579        6.2114298176
  H         9.1768055677        1.0346718656        4.7020909722
  O         9.1579199708        7.7360623998        1.8806718063
  H         9.0874459143        7.0831567094        1.1517517416
  H         9.1209795308        7.2824038218        2.7407931650
  O         4.7897140387       10.0995702327        4.2641371958
  H         4.0836757281       10.0917935768        3.6283630416
  H         4.6867725803        9.3058229348        4.7935653271
  O         8.0930065350       12.9354850177       11.8334018295
  H         8.9667056369       12.9895353990       12.3023986520
  H         8.2343820814       13.0274292070       10.8877438327
  O         4.9568137673       12.5962598766        9.1507059790
  H         4.2819296046       12.9967911450        8.5646783476
  H         4.8038446669       11.6501602524        9.1840242487
  O         4.4556032796       13.0025573897       13.0005834897
  H         5.4441881754       12.9986449274       12.9860448801
  H         4.1283287413       12.3387354327       12.4331836798
  O        12.7613920732        8.1794237304       10.0344751356
  H        12.8929929240        9.1193007525       10.0605057764
  H        13.0085037798        7.7995481866        9.1490533788
  O        12.9535637873        1.7582762825        1.9288205336
  H        13.0134217651        0.9909490024        2.5263063132
  H        13.0320949846        1.4562613045        1.0194318262
  O         0.9980946939        4.6005102477        4.5746231914
  H         0.9967303644        5.2544706671        5.3001911272
  H         0.9968387930        3.6844401397        4.9522609481
  O         2.8278371770        0.9834312583        4.6834519821
  H         3.1374000216        0.9929656316        5.6068874663
  H         1.8532706202        0.9947217848        4.6527773231
  O         5.4273533644        7.3625958514       10.2851112537
  H         6.3493725426        7.1728482132       10.5313380539
  H         4.8836226978        6.6168035806       10.6388719980
  O        13.0075495908       11.9254924150        7.4098463510
  H        12.2347701309       12.4943127784        7.5850380713
  H        12.9649367522       11.1825207709        8.0385592581
  O        12.6041793384        4.5605917095        1.5005295067
  H        12.9811631499        5.3091383204        1.0037388118
  H        11.8072761832        4.3130271280        1.0748068312
  O        12.9722002853        5.5633764648        6.8775334890
  H        12.0473368873        5.4299007029        7.1554028525
  H        12.9852458410        6.1398837885        6.1292892525
  O        10.2385403834       10.5110170853        1.0023036082
  H        10.6475944261       10.1903114074        1.8035010681
  H         9.2756901997       10.5033988813        1.1006981586
  O         8.9440268011        6.6945023364        8.9406027996
  H         9.7315115070        6.6292000355        8.3751636398
  H         8.9121476710        7.5865527454        9.3233145510
  O         6.7096348575        9.9874149677       11.0012542096
  H         7.6142348785       10.2197184286       10.7659992845