 DBCSR| CPU Multiplication driver                                           XSMM
 DBCSR| Multrec recursion limit                                              512
 DBCSR| Multiplication stack size                                           1000
 DBCSR| Maximum elements for images                                    UNLIMITED
 DBCSR| Multiplicative factor virtual images                                   1
 DBCSR| Use multiplication densification                                       T
 DBCSR| Multiplication size stacks                                             3
 DBCSR| Use memory pool for CPU allocation                                     F
 DBCSR| Number of 3D layers                                               SINGLE
 DBCSR| Use MPI memory allocation                                              F
 DBCSR| Use RMA algorithm                                                      F
 DBCSR| Use Communication thread                                               T
 DBCSR| Communication thread load                                             83
 DBCSR| MPI: My node id                                                        0
 DBCSR| MPI: Number of nodes                                                  12
 DBCSR| OMP: Current number of threads                                         2
 DBCSR| OMP: Max number of threads                                             2
 DBCSR| Split modifier for TAS multiplication algorithm                  1.0E+00


  **** **** ******  **  PROGRAM STARTED AT               2024-07-11 16:21:56.903
 ***** ** ***  *** **   PROGRAM STARTED ON                                node12
 **    ****   ******    PROGRAM STARTED BY                               minu928
 ***** **    ** ** **   PROGRAM PROCESS ID                               1603002
  **** **  *******  **  PROGRAM STARTED IN /nas_2/minu928/2_AqueousEletrolytes/2
                                           _AIMD/CsCl/npt/330/3

 CP2K| version string:                                       CP2K version 2022.2
 CP2K| source code revision number:                                  git:a95ec40
 CP2K| cp2kflags: omp libint fftw3 libxc elpa parallel mpi3 scalapack cosma xsmm
 CP2K|             spglib sirius libvori libbqb
 CP2K| is freely available from                            https://www.cp2k.org/
 CP2K| Program compiled at                          Tue Dec 20 11:55:48 KST 2022
 CP2K| Program compiled on                                                node11
 CP2K| Program compiled for                                                local
 CP2K| Data directory path               /home/tools/cp2k-2022.2-INTEL_XEON/data
 CP2K| Input file name                                                   run.inp

 GLOBAL| Force Environment number                                              1
 GLOBAL| Basis set file name                                   BASIS_MOLOPT_SCAN
 GLOBAL| Potential file name                                 GTH_POTENTIALS_SCAN
 GLOBAL| MM Potential file name                                     MM_POTENTIAL
 GLOBAL| Coordinate file name                                          ./run.xyz
 GLOBAL| Method name                                                        CP2K
 GLOBAL| Project name                                                       CsCl
 GLOBAL| Run type                                                             MD
 GLOBAL| FFT library                                                       FFTW3
 GLOBAL| Diagonalization library                                            ELPA
 GLOBAL| Minimum number of eigenvectors for ELPA usage                        16
 GLOBAL| Orthonormality check for eigenvectors                          DISABLED
 GLOBAL| Matrix multiplication library                                     COSMA
 GLOBAL| All-to-all communication in single precision                          F
 GLOBAL| FFTs using library dependent lengths                                  F
 GLOBAL| Grid backend                                                       AUTO
 GLOBAL| Global print level                                               MEDIUM
 GLOBAL| MPI I/O enabled                                                       T
 GLOBAL| Total number of message passing processes                            12
 GLOBAL| Number of threads for this process                                    2
 GLOBAL| This output is from process                                           0
 GLOBAL| Stack size for threads created by OpenMP (OMP_STACKSIZE)        default
 GLOBAL| CPU model name                Intel(R) Xeon(R) CPU E5-2690 v4 @ 2.60GHz
 GLOBAL| CPUID                                                              1002

 MEMORY| system memory details [Kb]
 MEMORY|                        rank 0           min           max       average
 MEMORY| MemTotal            131661056     131661056     131661056     131661056
 MEMORY| MemFree              74979424      74979424      74979424      74979424
 MEMORY| Buffers                747488        747488        747488        747488
 MEMORY| Cached               51669096      51669096      51669096      51669096
 MEMORY| Slab                  1108816       1108816       1108816       1108816
 MEMORY| SReclaimable           686500        686500        686500        686500
 MEMORY| MemLikelyFree       128082508     128082508     128082508     128082508


 *** Fundamental physical constants (SI units) ***

 *** Literature: B. J. Mohr and B. N. Taylor,
 ***             CODATA recommended values of the fundamental physical
 ***             constants: 2006, Web Version 5.1
 ***             http://physics.nist.gov/constants

 Speed of light in vacuum [m/s]                             2.99792458000000E+08
 Magnetic constant or permeability of vacuum [N/A**2]       1.25663706143592E-06
 Electric constant or permittivity of vacuum [F/m]          8.85418781762039E-12
 Planck constant (h) [J*s]                                  6.62606896000000E-34
 Planck constant (h-bar) [J*s]                              1.05457162825177E-34
 Elementary charge [C]                                      1.60217648700000E-19
 Electron mass [kg]                                         9.10938215000000E-31
 Electron g factor [ ]                                     -2.00231930436220E+00
 Proton mass [kg]                                           1.67262163700000E-27
 Fine-structure constant                                    7.29735253760000E-03
 Rydberg constant [1/m]                                     1.09737315685270E+07
 Avogadro constant [1/mol]                                  6.02214179000000E+23
 Boltzmann constant [J/K]                                   1.38065040000000E-23
 Atomic mass unit [kg]                                      1.66053878200000E-27
 Bohr radius [m]                                            5.29177208590000E-11

 *** Conversion factors ***

 [u] -> [a.u.]                                              1.82288848426455E+03
 [Angstrom] -> [Bohr] = [a.u.]                              1.88972613288564E+00
 [a.u.] = [Bohr] -> [Angstrom]                              5.29177208590000E-01
 [a.u.] -> [s]                                              2.41888432650478E-17
 [a.u.] -> [fs]                                             2.41888432650478E-02
 [a.u.] -> [J]                                              4.35974393937059E-18
 [a.u.] -> [N]                                              8.23872205491840E-08
 [a.u.] -> [K]                                              3.15774647902944E+05
 [a.u.] -> [kJ/mol]                                         2.62549961709828E+03
 [a.u.] -> [kcal/mol]                                       6.27509468713739E+02
 [a.u.] -> [Pa]                                             2.94210107994716E+13
 [a.u.] -> [bar]                                            2.94210107994716E+08
 [a.u.] -> [atm]                                            2.90362800883016E+08
 [a.u.] -> [eV]                                             2.72113838565563E+01
 [a.u.] -> [Hz]                                             6.57968392072181E+15
 [a.u.] -> [1/cm] (wave numbers)                            2.19474631370540E+05
 [a.u./Bohr**2] -> [1/cm]                                   5.14048714338585E+03
 

 CELL_TOP| Volume [angstrom^3]:                                      2753.418756
 CELL_TOP| Vector a [angstrom    14.016     0.000     0.000   |a| =    14.016000
 CELL_TOP| Vector b [angstrom     0.000    14.016     0.000   |b| =    14.016000
 CELL_TOP| Vector c [angstrom     0.000     0.000    14.016   |c| =    14.016000
 CELL_TOP| Angle (b,c), alpha [degree]:                                90.000000
 CELL_TOP| Angle (a,c), beta  [degree]:                                90.000000
 CELL_TOP| Angle (a,b), gamma [degree]:                                90.000000
 CELL_TOP| Numerically orthorhombic:                                         YES

 GENERATE|  Preliminary Number of Bonds generated:                             0
 GENERATE|  Achieved consistency in connectivity generation.

 CELL| Volume [angstrom^3]:                                          2753.418756
 CELL| Vector a [angstrom]:      14.016     0.000     0.000   |a| =    14.016000
 CELL| Vector b [angstrom]:       0.000    14.016     0.000   |b| =    14.016000
 CELL| Vector c [angstrom]:       0.000     0.000    14.016   |c| =    14.016000
 CELL| Angle (b,c), alpha [degree]:                                    90.000000
 CELL| Angle (a,c), beta  [degree]:                                    90.000000
 CELL| Angle (a,b), gamma [degree]:                                    90.000000
 CELL| Numerically orthorhombic:                                             YES

 CELL_REF| Volume [angstrom^3]:                                      2753.418756
 CELL_REF| Vector a [angstrom    14.016     0.000     0.000   |a| =    14.016000
 CELL_REF| Vector b [angstrom     0.000    14.016     0.000   |b| =    14.016000
 CELL_REF| Vector c [angstrom     0.000     0.000    14.016   |c| =    14.016000
 CELL_REF| Angle (b,c), alpha [degree]:                                90.000000
 CELL_REF| Angle (a,c), beta  [degree]:                                90.000000
 CELL_REF| Angle (a,b), gamma [degree]:                                90.000000
 CELL_REF| Numerically orthorhombic:                                         YES

 *******************************************************************************
 *******************************************************************************
 **                                                                           **
 **     #####                         ##              ##                      **
 **    ##   ##            ##          ##              ##                      **
 **   ##     ##                       ##            ######                    **
 **   ##     ##  ##   ##  ##   #####  ##  ##   ####   ##    #####    #####    **
 **   ##     ##  ##   ##  ##  ##      ## ##   ##      ##   ##   ##  ##   ##   **
 **   ##  ## ##  ##   ##  ##  ##      ####     ###    ##   ######   ######    **
 **    ##  ###   ##   ##  ##  ##      ## ##      ##   ##   ##       ##        **
 **     #######   #####   ##   #####  ##  ##  ####    ##    #####   ##        **
 **           ##                                                    ##        **
 **                                                                           **
 **                                                ... make the atoms dance   **
 **                                                                           **
 **            Copyright (C) by CP2K developers group (2000-2022)             **
 **                      J. Chem. Phys. 152, 194103 (2020)                    **
 **                                                                           **
 *******************************************************************************

 DFT| Spin restricted Kohn-Sham (RKS) calculation                            RKS
 DFT| Multiplicity                                                             1
 DFT| Number of spin states                                                    1
 DFT| Charge                                                                   0
 DFT| Self-interaction correction (SIC)                                       NO
 DFT| Cutoffs: density                                              1.000000E-10
 DFT|          gradient                                             1.000000E-10
 DFT|          tau                                                  1.000000E-10
 DFT|          cutoff_smoothing_range                               0.000000E+00
 DFT| XC density smoothing                                                  NONE
 DFT| XC derivatives                                                          PW

 FUNCTIONAL| MGGA_X_R2SCAN:
 FUNCTIONAL| [1] J. W. Furness, A. D. Kaplan, J. Ning, J. P. Perdew, and J. Sun,
 FUNCTIONAL|  J. Phys. Chem. Lett. 11, 8208 (2020), doi: 10.1021/acs.jpclett.0c0
 FUNCTIONAL| 2405                                                               
 FUNCTIONAL| Optional external parameters:                                      
 FUNCTIONAL|  * c1 parameter                                                    
 FUNCTIONAL|  * c2 parameter                                                    
 FUNCTIONAL|  * d parameter                                                     
 FUNCTIONAL|  * k1 parameter                                                    
 FUNCTIONAL|  * eta parameter                                                   
 FUNCTIONAL|  * dp2 parameter                                                   
 FUNCTIONAL| {scale=1.000, spin-unpolarized}                                    
 FUNCTIONAL| MGGA_C_R2SCAN:
 FUNCTIONAL| [1] J. W. Furness, A. D. Kaplan, J. Ning, J. P. Perdew, and J. Sun,
 FUNCTIONAL|  J. Phys. Chem. Lett. 11, 8208 (2020), doi: 10.1021/acs.jpclett.0c0
 FUNCTIONAL| 2405                                                               
 FUNCTIONAL| Optional external parameters:                                      
 FUNCTIONAL|  * Regularization parameter                                        
 FUNCTIONAL| {scale=1.000, spin-unpolarized}                                    


 QS| Method:                                                                 GPW
 QS| Density plane wave grid type                        NON-SPHERICAL FULLSPACE
 QS| Number of grid levels:                                                    4
 QS| Density cutoff [a.u.]:                                                600.0
 QS| Multi grid cutoff [a.u.]: 1) grid level                               600.0
 QS|                           2) grid level                               200.0
 QS|                           3) grid level                                66.7
 QS|                           4) grid level                                22.2
 QS| Grid level progression factor:                                          3.0
 QS| Relative density cutoff [a.u.]:                                        30.0
 QS| Interaction thresholds: eps_pgf_orb:                                1.0E-07
 QS|                         eps_filter_matrix:                          0.0E+00
 QS|                         eps_core_charge:                            1.0E-16
 QS|                         eps_rho_gspace:                             1.0E-14
 QS|                         eps_rho_rspace:                             1.0E-14
 QS|                         eps_gvg_rspace:                             1.0E-07
 QS|                         eps_ppl:                                    1.0E-02
 QS|                         eps_ppnl:                                   1.0E-09


 ATOMIC KIND INFORMATION

  1. Atomic kind: Cs                                    Number of atoms:       3

     Orbital Basis Set                                  TZV2P-MOLOPT-SCAN-GTH-q9

       Number of orbital shell sets:                                           1
       Number of orbital shells:                                               9
       Number of primitive Cartesian functions:                                6
       Number of Cartesian basis functions:                                   25
       Number of spherical basis functions:                                   23
       Norm type:                                                              2

       Normalised Cartesian orbitals:

                        Set   Shell   Orbital            Exponent    Coefficient

                          1       1    2s                2.013935       0.157881
                                                         1.781676      -0.166001
                                                         0.585244      -0.055433
                                                         0.247435      -0.040321
                                                         0.093354       0.045399
                                                         0.032620       0.043611

                          1       2    3s                2.013935       2.100444
                                                         1.781676      -2.553825
                                                         0.585244       0.262057
                                                         0.247435       0.153414
                                                         0.093354       0.078565
                                                         0.032620      -0.045476

                          1       3    4s                2.013935       0.575531
                                                         1.781676      -0.763603
                                                         0.585244       0.114245
                                                         0.247435       0.459128
                                                         0.093354      -0.407615
                                                         0.032620       0.098378

                          1       4    5s                2.013935       0.791687
                                                         1.781676       0.576043
                                                         0.585244      -0.256361
                                                         0.247435       0.095676
                                                         0.093354       0.014378
                                                         0.032620      -0.003621

                          1       5    3px               2.013935       1.685759
                                                         1.781676      -2.040252
                                                         0.585244       0.304541
                                                         0.247435       0.174913
                                                         0.093354       0.011787
                                                         0.032620      -0.007749
                          1       5    3py               2.013935       1.685759
                                                         1.781676      -2.040252
                                                         0.585244       0.304541
                                                         0.247435       0.174913
                                                         0.093354       0.011787
                                                         0.032620      -0.007749
                          1       5    3pz               2.013935       1.685759
                                                         1.781676      -2.040252
                                                         0.585244       0.304541
                                                         0.247435       0.174913
                                                         0.093354       0.011787
                                                         0.032620      -0.007749

                          1       6    4px               2.013935       0.635341
                                                         1.781676      -0.717518
                                                         0.585244       0.078676
                                                         0.247435       0.012284
                                                         0.093354       0.005890
                                                         0.032620       0.017848
                          1       6    4py               2.013935       0.635341
                                                         1.781676      -0.717518
                                                         0.585244       0.078676
                                                         0.247435       0.012284
                                                         0.093354       0.005890
                                                         0.032620       0.017848
                          1       6    4pz               2.013935       0.635341
                                                         1.781676      -0.717518
                                                         0.585244       0.078676
                                                         0.247435       0.012284
                                                         0.093354       0.005890
                                                         0.032620       0.017848

                          1       7    5px               2.013935      -1.830830
                                                         1.781676       2.170949
                                                         0.585244      -1.616599
                                                         0.247435       0.779481
                                                         0.093354      -0.128988
                                                         0.032620       0.011048
                          1       7    5py               2.013935      -1.830830
                                                         1.781676       2.170949
                                                         0.585244      -1.616599
                                                         0.247435       0.779481
                                                         0.093354      -0.128988
                                                         0.032620       0.011048
                          1       7    5pz               2.013935      -1.830830
                                                         1.781676       2.170949
                                                         0.585244      -1.616599
                                                         0.247435       0.779481
                                                         0.093354      -0.128988
                                                         0.032620       0.011048

                          1       8    4dx2              2.013935      -0.935843
                                                         1.781676       1.056941
                                                         0.585244      -0.103259
                                                         0.247435      -0.060919
                                                         0.093354      -0.011632
                                                         0.032620      -0.000956
                          1       8    4dxy              2.013935      -1.620928
                                                         1.781676       1.830676
                                                         0.585244      -0.178850
                                                         0.247435      -0.105515
                                                         0.093354      -0.020147
                                                         0.032620      -0.001655
                          1       8    4dxz              2.013935      -1.620928
                                                         1.781676       1.830676
                                                         0.585244      -0.178850
                                                         0.247435      -0.105515
                                                         0.093354      -0.020147
                                                         0.032620      -0.001655
                          1       8    4dy2              2.013935      -0.935843
                                                         1.781676       1.056941
                                                         0.585244      -0.103259
                                                         0.247435      -0.060919
                                                         0.093354      -0.011632
                                                         0.032620      -0.000956
                          1       8    4dyz              2.013935      -1.620928
                                                         1.781676       1.830676
                                                         0.585244      -0.178850
                                                         0.247435      -0.105515
                                                         0.093354      -0.020147
                                                         0.032620      -0.001655
                          1       8    4dz2              2.013935      -0.935843
                                                         1.781676       1.056941
                                                         0.585244      -0.103259
                                                         0.247435      -0.060919
                                                         0.093354      -0.011632
                                                         0.032620      -0.000956

                          1       9    5dx2              2.013935       1.769267
                                                         1.781676      -1.208292
                                                         0.585244      -0.049162
                                                         0.247435      -0.086086
                                                         0.093354      -0.003264
                                                         0.032620       0.003738
                          1       9    5dxy              2.013935       3.064461
                                                         1.781676      -2.092823
                                                         0.585244      -0.085151
                                                         0.247435      -0.149106
                                                         0.093354      -0.005653
                                                         0.032620       0.006474
                          1       9    5dxz              2.013935       3.064461
                                                         1.781676      -2.092823
                                                         0.585244      -0.085151
                                                         0.247435      -0.149106
                                                         0.093354      -0.005653
                                                         0.032620       0.006474
                          1       9    5dy2              2.013935       1.769267
                                                         1.781676      -1.208292
                                                         0.585244      -0.049162
                                                         0.247435      -0.086086
                                                         0.093354      -0.003264
                                                         0.032620       0.003738
                          1       9    5dyz              2.013935       3.064461
                                                         1.781676      -2.092823
                                                         0.585244      -0.085151
                                                         0.247435      -0.149106
                                                         0.093354      -0.005653
                                                         0.032620       0.006474
                          1       9    5dz2              2.013935       1.769267
                                                         1.781676      -1.208292
                                                         0.585244      -0.049162
                                                         0.247435      -0.086086
                                                         0.093354      -0.003264
                                                         0.032620       0.003738

       Atomic covalent radius [Angstrom]:                                  2.350

       Atomic van der Waals radius [Angstrom]:                             3.430

     GTH Potential information for                                   GTH-SCAN-q9

       Description:                       Goedecker-Teter-Hutter pseudopotential
                                           Goedecker et al., PRB 54, 1703 (1996)
                                          Hartwigsen et al., PRB 58, 3641 (1998)
                                                      Krack, TCA 114, 145 (2005)

       Gaussian exponent of the core charge distribution:               1.707409
       Electronic configuration (s p d ...):                       3   6   0   0

       Parameters of the local part of the GTH pseudopotential:

                          rloc        C1          C2          C3          C4
                        0.541148   33.322288   -2.939360

       Parameters of the non-local part of the GTH pseudopotential:

                   l      r(l)      h(i,j,l)

                   0    0.459715   -3.303046    2.455658
                                    2.455658   -3.179243
                   1    0.366139   -5.004844    0.840388
                                    0.840388   -1.006472
                   2    0.769422    0.201639
                   3    0.597050   -1.550387

  2. Atomic kind: Cl                                    Number of atoms:       3

     Orbital Basis Set                                  TZV2P-MOLOPT-SCAN-GTH-q7

       Number of orbital shell sets:                                           1
       Number of orbital shells:                                               9
       Number of primitive Cartesian functions:                                4
       Number of Cartesian basis functions:                                   34
       Number of spherical basis functions:                                   29
       Norm type:                                                              2

       Normalised Cartesian orbitals:

                        Set   Shell   Orbital            Exponent    Coefficient

                          1       1    2s                1.990311       0.553567
                                                         1.465019      -0.335082
                                                         0.406554      -0.193469
                                                         0.133703      -0.084795

                          1       2    3s                1.990311       0.542077
                                                         1.465019       0.196337
                                                         0.406554      -0.540548
                                                         0.133703       0.272824

                          1       3    4s                1.990311      -0.144377
                                                         1.465019      -1.031705
                                                         0.406554       0.087725
                                                         0.133703       0.058245

                          1       4    3px               1.990311       0.952589
                                                         1.465019      -0.976975
                                                         0.406554      -0.277977
                                                         0.133703      -0.041264
                          1       4    3py               1.990311       0.952589
                                                         1.465019      -0.976975
                                                         0.406554      -0.277977
                                                         0.133703      -0.041264
                          1       4    3pz               1.990311       0.952589
                                                         1.465019      -0.976975
                                                         0.406554      -0.277977
                                                         0.133703      -0.041264

                          1       5    4px               1.990311       0.721240
                                                         1.465019      -0.521030
                                                         0.406554      -0.232610
                                                         0.133703       0.147705
                          1       5    4py               1.990311       0.721240
                                                         1.465019      -0.521030
                                                         0.406554      -0.232610
                                                         0.133703       0.147705
                          1       5    4pz               1.990311       0.721240
                                                         1.465019      -0.521030
                                                         0.406554      -0.232610
                                                         0.133703       0.147705

                          1       6    5px               1.990311      -1.056793
                                                         1.465019      -2.017277
                                                         0.406554       0.200798
                                                         0.133703       0.007744
                          1       6    5py               1.990311      -1.056793
                                                         1.465019      -2.017277
                                                         0.406554       0.200798
                                                         0.133703       0.007744
                          1       6    5pz               1.990311      -1.056793
                                                         1.465019      -2.017277
                                                         0.406554       0.200798
                                                         0.133703       0.007744

                          1       7    4dx2              1.990311       0.501660
                                                         1.465019       0.640939
                                                         0.406554       0.258323
                                                         0.133703       0.006080
                          1       7    4dxy              1.990311       0.868900
                                                         1.465019       1.110139
                                                         0.406554       0.447429
                                                         0.133703       0.010530
                          1       7    4dxz              1.990311       0.868900
                                                         1.465019       1.110139
                                                         0.406554       0.447429
                                                         0.133703       0.010530
                          1       7    4dy2              1.990311       0.501660
                                                         1.465019       0.640939
                                                         0.406554       0.258323
                                                         0.133703       0.006080
                          1       7    4dyz              1.990311       0.868900
                                                         1.465019       1.110139
                                                         0.406554       0.447429
                                                         0.133703       0.010530
                          1       7    4dz2              1.990311       0.501660
                                                         1.465019       0.640939
                                                         0.406554       0.258323
                                                         0.133703       0.006080

                          1       8    5dx2              1.990311      -0.492567
                                                         1.465019       3.772798
                                                         0.406554      -0.123523
                                                         0.133703       0.018914
                          1       8    5dxy              1.990311      -0.853151
                                                         1.465019       6.534677
                                                         0.406554      -0.213948
                                                         0.133703       0.032760
                          1       8    5dxz              1.990311      -0.853151
                                                         1.465019       6.534677
                                                         0.406554      -0.213948
                                                         0.133703       0.032760
                          1       8    5dy2              1.990311      -0.492567
                                                         1.465019       3.772798
                                                         0.406554      -0.123523
                                                         0.133703       0.018914
                          1       8    5dyz              1.990311      -0.853151
                                                         1.465019       6.534677
                                                         0.406554      -0.213948
                                                         0.133703       0.032760
                          1       8    5dz2              1.990311      -0.492567
                                                         1.465019       3.772798
                                                         0.406554      -0.123523
                                                         0.133703       0.018914

                          1       9    5fx3              1.990311      -0.246741
                                                         1.465019       0.911594
                                                         0.406554       0.177065
                                                         0.133703      -0.001161
                          1       9    5fx2y             1.990311      -0.551729
                                                         1.465019       2.038386
                                                         0.406554       0.395928
                                                         0.133703      -0.002597
                          1       9    5fx2z             1.990311      -0.551729
                                                         1.465019       2.038386
                                                         0.406554       0.395928
                                                         0.133703      -0.002597
                          1       9    5fxy2             1.990311      -0.551729
                                                         1.465019       2.038386
                                                         0.406554       0.395928
                                                         0.133703      -0.002597
                          1       9    5fxyz             1.990311      -0.955623
                                                         1.465019       3.530587
                                                         0.406554       0.685768
                                                         0.133703      -0.004498
                          1       9    5fxz2             1.990311      -0.551729
                                                         1.465019       2.038386
                                                         0.406554       0.395928
                                                         0.133703      -0.002597
                          1       9    5fy3              1.990311      -0.246741
                                                         1.465019       0.911594
                                                         0.406554       0.177065
                                                         0.133703      -0.001161
                          1       9    5fy2z             1.990311      -0.551729
                                                         1.465019       2.038386
                                                         0.406554       0.395928
                                                         0.133703      -0.002597
                          1       9    5fyz2             1.990311      -0.551729
                                                         1.465019       2.038386
                                                         0.406554       0.395928
                                                         0.133703      -0.002597
                          1       9    5fz3              1.990311      -0.246741
                                                         1.465019       0.911594
                                                         0.406554       0.177065
                                                         0.133703      -0.001161

       Atomic covalent radius [Angstrom]:                                  0.990

       Atomic van der Waals radius [Angstrom]:                             1.750

     GTH Potential information for                                   GTH-SCAN-q7

       Description:                       Goedecker-Teter-Hutter pseudopotential
                                           Goedecker et al., PRB 54, 1703 (1996)
                                          Hartwigsen et al., PRB 58, 3641 (1998)
                                                      Krack, TCA 114, 145 (2005)

       Gaussian exponent of the core charge distribution:               3.057284
       Electronic configuration (s p d ...):                       2   5   0   0

       Parameters of the local part of the GTH pseudopotential:

                          rloc        C1          C2          C3          C4
                        0.404406   -6.394753

       Parameters of the non-local part of the GTH pseudopotential:

                   l      r(l)      h(i,j,l)

                   0    0.339247   15.226939   -4.934521
                                   -4.934521    6.367374
                   1    0.377245    4.332916

  3. Atomic kind: O                                     Number of atoms:      64

     Orbital Basis Set                                  TZV2P-MOLOPT-SCAN-GTH-q6

       Number of orbital shell sets:                                           1
       Number of orbital shells:                                               9
       Number of primitive Cartesian functions:                                5
       Number of Cartesian basis functions:                                   34
       Number of spherical basis functions:                                   29
       Norm type:                                                              2

       Normalised Cartesian orbitals:

                        Set   Shell   Orbital            Exponent    Coefficient

                          1       1    2s               10.257817      -0.419073
                                                         3.644287      -0.215759
                                                         1.402225       0.311285
                                                         0.522057       0.263821
                                                         0.168189       0.045116

                          1       2    3s               10.257817       0.362459
                                                         3.644287       0.180656
                                                         1.402225      -0.203664
                                                         0.522057      -0.159611
                                                         0.168189       0.244682

                          1       3    4s               10.257817      -2.413417
                                                         3.644287      -0.850901
                                                         1.402225       0.170654
                                                         0.522057      -0.131214
                                                         0.168189       0.003984

                          1       4    3px              10.257817      -1.672017
                                                         3.644287      -1.345385
                                                         1.402225      -0.751048
                                                         0.522057      -0.276645
                                                         0.168189      -0.033014
                          1       4    3py              10.257817      -1.672017
                                                         3.644287      -1.345385
                                                         1.402225      -0.751048
                                                         0.522057      -0.276645
                                                         0.168189      -0.033014
                          1       4    3pz              10.257817      -1.672017
                                                         3.644287      -1.345385
                                                         1.402225      -0.751048
                                                         0.522057      -0.276645
                                                         0.168189      -0.033014

                          1       5    4px              10.257817       1.559903
                                                         3.644287       0.989060
                                                         1.402225       0.672543
                                                         0.522057       0.141420
                                                         0.168189      -0.167208
                          1       5    4py              10.257817       1.559903
                                                         3.644287       0.989060
                                                         1.402225       0.672543
                                                         0.522057       0.141420
                                                         0.168189      -0.167208
                          1       5    4pz              10.257817       1.559903
                                                         3.644287       0.989060
                                                         1.402225       0.672543
                                                         0.522057       0.141420
                                                         0.168189      -0.167208

                          1       6    5px              10.257817       5.420840
                                                         3.644287       0.742781
                                                         1.402225       2.786765
                                                         0.522057      -0.733751
                                                         0.168189       0.023040
                          1       6    5py              10.257817       5.420840
                                                         3.644287       0.742781
                                                         1.402225       2.786765
                                                         0.522057      -0.733751
                                                         0.168189       0.023040
                          1       6    5pz              10.257817       5.420840
                                                         3.644287       0.742781
                                                         1.402225       2.786765
                                                         0.522057      -0.733751
                                                         0.168189       0.023040

                          1       7    4dx2             10.257817      -1.249026
                                                         3.644287       1.475740
                                                         1.402225       0.993741
                                                         0.522057       0.395456
                                                         0.168189      -0.006736
                          1       7    4dxy             10.257817      -2.163376
                                                         3.644287       2.556057
                                                         1.402225       1.721210
                                                         0.522057       0.684950
                                                         0.168189      -0.011667
                          1       7    4dxz             10.257817      -2.163376
                                                         3.644287       2.556057
                                                         1.402225       1.721210
                                                         0.522057       0.684950
                                                         0.168189      -0.011667
                          1       7    4dy2             10.257817      -1.249026
                                                         3.644287       1.475740
                                                         1.402225       0.993741
                                                         0.522057       0.395456
                                                         0.168189      -0.006736
                          1       7    4dyz             10.257817      -2.163376
                                                         3.644287       2.556057
                                                         1.402225       1.721210
                                                         0.522057       0.684950
                                                         0.168189      -0.011667
                          1       7    4dz2             10.257817      -1.249026
                                                         3.644287       1.475740
                                                         1.402225       0.993741
                                                         0.522057       0.395456
                                                         0.168189      -0.006736

                          1       8    5dx2             10.257817       3.556458
                                                         3.644287      -4.051969
                                                         1.402225      -2.873894
                                                         0.522057       0.263147
                                                         0.168189       0.020709
                          1       8    5dxy             10.257817       6.159966
                                                         3.644287      -7.018216
                                                         1.402225      -4.977731
                                                         0.522057       0.455784
                                                         0.168189       0.035869
                          1       8    5dxz             10.257817       6.159966
                                                         3.644287      -7.018216
                                                         1.402225      -4.977731
                                                         0.522057       0.455784
                                                         0.168189       0.035869
                          1       8    5dy2             10.257817       3.556458
                                                         3.644287      -4.051969
                                                         1.402225      -2.873894
                                                         0.522057       0.263147
                                                         0.168189       0.020709
                          1       8    5dyz             10.257817       6.159966
                                                         3.644287      -7.018216
                                                         1.402225      -4.977731
                                                         0.522057       0.455784
                                                         0.168189       0.035869
                          1       8    5dz2             10.257817       3.556458
                                                         3.644287      -4.051969
                                                         1.402225      -2.873894
                                                         0.522057       0.263147
                                                         0.168189       0.020709

                          1       9    5fx3             10.257817       0.328905
                                                         3.644287      -0.098771
                                                         1.402225       0.001548
                                                         0.522057       0.341041
                                                         0.168189       0.000015
                          1       9    5fx2y            10.257817       0.735453
                                                         3.644287      -0.220859
                                                         1.402225       0.003461
                                                         0.522057       0.762591
                                                         0.168189       0.000033
                          1       9    5fx2z            10.257817       0.735453
                                                         3.644287      -0.220859
                                                         1.402225       0.003461
                                                         0.522057       0.762591
                                                         0.168189       0.000033
                          1       9    5fxy2            10.257817       0.735453
                                                         3.644287      -0.220859
                                                         1.402225       0.003461
                                                         0.522057       0.762591
                                                         0.168189       0.000033
                          1       9    5fxyz            10.257817       1.273842
                                                         3.644287      -0.382540
                                                         1.402225       0.005995
                                                         0.522057       1.320846
                                                         0.168189       0.000058
                          1       9    5fxz2            10.257817       0.735453
                                                         3.644287      -0.220859
                                                         1.402225       0.003461
                                                         0.522057       0.762591
                                                         0.168189       0.000033
                          1       9    5fy3             10.257817       0.328905
                                                         3.644287      -0.098771
                                                         1.402225       0.001548
                                                         0.522057       0.341041
                                                         0.168189       0.000015
                          1       9    5fy2z            10.257817       0.735453
                                                         3.644287      -0.220859
                                                         1.402225       0.003461
                                                         0.522057       0.762591
                                                         0.168189       0.000033
                          1       9    5fyz2            10.257817       0.735453
                                                         3.644287      -0.220859
                                                         1.402225       0.003461
                                                         0.522057       0.762591
                                                         0.168189       0.000033
                          1       9    5fz3             10.257817       0.328905
                                                         3.644287      -0.098771
                                                         1.402225       0.001548
                                                         0.522057       0.341041
                                                         0.168189       0.000015

       Atomic covalent radius [Angstrom]:                                  0.730

       Atomic van der Waals radius [Angstrom]:                             1.520

     GTH Potential information for                                   GTH-SCAN-q6

       Description:                       Goedecker-Teter-Hutter pseudopotential
                                           Goedecker et al., PRB 54, 1703 (1996)
                                          Hartwigsen et al., PRB 58, 3641 (1998)
                                                      Krack, TCA 114, 145 (2005)

       Gaussian exponent of the core charge distribution:               8.656553
       Electronic configuration (s p d ...):                       2   4   0   0

       Parameters of the local part of the GTH pseudopotential:

                          rloc        C1          C2          C3          C4
                        0.240332  -16.794986    2.452457

       Parameters of the non-local part of the GTH pseudopotential:

                   l      r(l)      h(i,j,l)

                   0    0.221500   18.441562

  4. Atomic kind: H                                     Number of atoms:     128

     Orbital Basis Set                                  TZV2P-MOLOPT-SCAN-GTH-q1

       Number of orbital shell sets:                                           1
       Number of orbital shells:                                               6
       Number of primitive Cartesian functions:                                5
       Number of Cartesian basis functions:                                   15
       Number of spherical basis functions:                                   14
       Norm type:                                                              2

       Normalised Cartesian orbitals:

                        Set   Shell   Orbital            Exponent    Coefficient

                          1       1    2s                9.168765       0.095357
                                                         2.161194       0.125778
                                                         0.619868       0.162183
                                                         0.161316       0.074849
                                                         0.412255       0.090962

                          1       2    3s                9.168765      -0.435739
                                                         2.161194      -0.868971
                                                         0.619868      -0.406683
                                                         0.161316      -0.142964
                                                         0.412255       0.978336

                          1       3    4s                9.168765       0.385896
                                                         2.161194       1.113624
                                                         0.619868       0.043366
                                                         0.161316      -0.067676
                                                         0.412255       0.053421

                          1       4    3px               9.168765      -1.788640
                                                         2.161194       0.906920
                                                         0.619868       0.273605
                                                         0.161316       0.091389
                                                         0.412255       0.008094
                          1       4    3py               9.168765      -1.788640
                                                         2.161194       0.906920
                                                         0.619868       0.273605
                                                         0.161316       0.091389
                                                         0.412255       0.008094
                          1       4    3pz               9.168765      -1.788640
                                                         2.161194       0.906920
                                                         0.619868       0.273605
                                                         0.161316       0.091389
                                                         0.412255       0.008094

                          1       5    4px               9.168765       3.833256
                                                         2.161194      -1.958439
                                                         0.619868      -0.594902
                                                         0.161316       0.094348
                                                         0.412255      -0.017587
                          1       5    4py               9.168765       3.833256
                                                         2.161194      -1.958439
                                                         0.619868      -0.594902
                                                         0.161316       0.094348
                                                         0.412255      -0.017587
                          1       5    4pz               9.168765       3.833256
                                                         2.161194      -1.958439
                                                         0.619868      -0.594902
                                                         0.161316       0.094348
                                                         0.412255      -0.017587

                          1       6    4dx2              9.168765       0.046944
                                                         2.161194       0.005757
                                                         0.619868      -0.000296
                                                         0.161316       0.067696
                                                         0.412255      -0.000784
                          1       6    4dxy              9.168765       0.081310
                                                         2.161194       0.009971
                                                         0.619868      -0.000513
                                                         0.161316       0.117253
                                                         0.412255      -0.001358
                          1       6    4dxz              9.168765       0.081310
                                                         2.161194       0.009971
                                                         0.619868      -0.000513
                                                         0.161316       0.117253
                                                         0.412255      -0.001358
                          1       6    4dy2              9.168765       0.046944
                                                         2.161194       0.005757
                                                         0.619868      -0.000296
                                                         0.161316       0.067696
                                                         0.412255      -0.000784
                          1       6    4dyz              9.168765       0.081310
                                                         2.161194       0.009971
                                                         0.619868      -0.000513
                                                         0.161316       0.117253
                                                         0.412255      -0.001358
                          1       6    4dz2              9.168765       0.046944
                                                         2.161194       0.005757
                                                         0.619868      -0.000296
                                                         0.161316       0.067696
                                                         0.412255      -0.000784

       Atomic covalent radius [Angstrom]:                                  0.320

       Atomic van der Waals radius [Angstrom]:                             1.090

     GTH Potential information for                                   GTH-SCAN-q1

       Description:                       Goedecker-Teter-Hutter pseudopotential
                                           Goedecker et al., PRB 54, 1703 (1996)
                                          Hartwigsen et al., PRB 58, 3641 (1998)
                                                      Krack, TCA 114, 145 (2005)

       Gaussian exponent of the core charge distribution:              12.429143
       Electronic configuration (s p d ...):                       1   0   0   0

       Parameters of the local part of the GTH pseudopotential:

                          rloc        C1          C2          C3          C4
                        0.200569   -4.177243    0.723816


 MOLECULE KIND INFORMATION


 All atoms are their own molecule, skipping detailed information


 TOTAL NUMBERS AND MAXIMUM NUMBERS

  Total number of            - Atomic kinds:                                   4
                             - Atoms:                                        198
                             - Shell sets:                                   198
                             - Shells:                                      1398
                             - Primitive Cartesian functions:                990
                             - Cartesian basis functions:                   4273
                             - Spherical basis functions:                   3804

  Maximum angular momentum of- Orbital basis functions:                        3
                             - Local part of the GTH pseudopotential:          2
                             - Non-local part of the GTH pseudopotential:      3


 MODULE QUICKSTEP:  ATOMIC COORDINATES IN angstrom

 Atom  Kind  Element       X           Y           Z          Z(eff)       Mass
    1   1 Cs  55       3.806502    3.724672    3.668982       9.0000    132.9055
    2   1 Cs  55      10.996117   11.805563   10.306328       9.0000    132.9055
    3   1 Cs  55       6.106592    7.838291    2.294436       9.0000    132.9055
    4   2 Cl  17      11.960722    3.033858    4.915166       7.0000     35.4530
    5   2 Cl  17       8.842068    4.008258    3.096832       7.0000     35.4530
    6   2 Cl  17      12.006048    2.996665   10.507845       7.0000     35.4530
    7   3 O    8       9.242835    7.098107    5.589778       6.0000     15.9994
    8   4 H    1       9.172362    6.130739    5.601302       1.0000      1.0079
    9   4 H    1       8.388027    7.487474    5.831842       1.0000      1.0079
   10   3 O    8      10.897773    9.041441    6.914680       6.0000     15.9994
   11   4 H    1      11.554419    8.598142    6.355036       1.0000      1.0079
   12   4 H    1      10.793462    9.961049    6.624268       1.0000      1.0079
   13   3 O    8       9.063317    1.404196    5.584167       6.0000     15.9994
   14   4 H    1       9.677140    0.998476    6.216237       1.0000      1.0079
   15   4 H    1       9.198115    1.013813    4.706482       1.0000      1.0079
   16   3 O    8       9.156562    7.735202    1.878510       6.0000     15.9994
   17   4 H    1       9.084966    7.087981    1.159567       1.0000      1.0079
   18   4 H    1       9.103046    7.277542    2.732080       1.0000      1.0079
   19   3 O    8       4.789845   10.092074    4.269262       6.0000     15.9994
   20   4 H    1       4.084405   10.099239    3.603527       1.0000      1.0079
   21   4 H    1       4.687280    9.314992    4.840683       1.0000      1.0079
   22   3 O    8       8.094096   12.936466   11.838738       6.0000     15.9994
   23   4 H    1       8.955563   13.000189   12.280004       1.0000      1.0079
   24   4 H    1       8.216798   13.002994   10.878834       1.0000      1.0079
   25   3 O    8       4.962976   12.595451    9.149979       6.0000     15.9994
   26   4 H    1       4.280060   13.000611    8.592870       1.0000      1.0079
   27   4 H    1       4.808325   11.639580    9.207352       1.0000      1.0079
   28   3 O    8       4.455051   13.005488   13.001866       6.0000     15.9994
   29   4 H    1       5.424836   12.985105   13.000804       1.0000      1.0079
   30   4 H    1       4.116658   12.323569   12.400722       1.0000      1.0079
   31   3 O    8      12.757303    8.175433   10.033899       6.0000     15.9994
   32   4 H    1      12.906371    9.133907   10.031636       1.0000      1.0079
   33   4 H    1      12.998091    7.808723    9.168773       1.0000      1.0079
   34   3 O    8      12.958872    1.758002    1.936128       6.0000     15.9994
   35   4 H    1      13.001035    0.997093    2.536244       1.0000      1.0079
   36   4 H    1      13.000956    1.448293    1.017865       1.0000      1.0079
   37   3 O    8       0.998538    4.601410    4.581323       6.0000     15.9994
   38   4 H    1       0.998004    5.256028    5.297127       1.0000      1.0079
   39   4 H    1       0.998498    3.708340    4.959905       1.0000      1.0079
   40   3 O    8       2.831945    0.986086    4.686328       6.0000     15.9994
   41   4 H    1       3.147734    0.999026    5.603394       1.0000      1.0079
   42   4 H    1       1.862037    0.996556    4.678172       1.0000      1.0079
   43   3 O    8       5.434398    7.363775   10.287040       6.0000     15.9994
   44   4 H    1       6.359556    7.191995   10.522570       1.0000      1.0079
   45   4 H    1       4.874986    6.650730   10.632761       1.0000      1.0079
   46   3 O    8      13.002089   11.926875    7.417037       6.0000     15.9994
   47   4 H    1      12.237715   12.502710    7.575295       1.0000      1.0079
   48   4 H    1      12.974019   11.176278    8.030808       1.0000      1.0079
   49   3 O    8      12.604601    4.561485    1.495871       6.0000     15.9994
   50   4 H    1      13.002425    5.290656    0.994927       1.0000      1.0079
   51   4 H    1      11.772416    4.295749    1.074268       1.0000      1.0079
   52   3 O    8      12.972016    5.563101    6.884473       6.0000     15.9994
   53   4 H    1      12.051577    5.459645    7.172550       1.0000      1.0079
   54   4 H    1      13.004731    6.145466    6.109438       1.0000      1.0079
   55   3 O    8      10.239719   10.514415    0.995128       6.0000     15.9994
   56   4 H    1      10.657398   10.168284    1.799266       1.0000      1.0079
   57   4 H    1       9.275135   10.482409    1.092347       1.0000      1.0079
   58   3 O    8       8.946147    6.696988    8.943411       6.0000     15.9994
   59   4 H    1       9.721324    6.609881    8.366859       1.0000      1.0079
   60   4 H    1       8.928594    7.586724    9.329364       1.0000      1.0079
   61   3 O    8       6.708940    9.990341   10.998063       6.0000     15.9994
   62   4 H    1       7.629242   10.205873   10.780141       1.0000      1.0079
   63   4 H    1       6.305457   10.735432   11.470226       1.0000      1.0079
   64   3 O    8       2.209675    9.715567    1.000502       6.0000     15.9994
   65   4 H    1       2.579045    8.818647    0.999808       1.0000      1.0079
   66   4 H    1       2.932176   10.362783    0.999224       1.0000      1.0079
   67   3 O    8       3.757459   12.996211    2.196340       6.0000     15.9994
   68   4 H    1       4.330662   12.991899    1.413832       1.0000      1.0079
   69   4 H    1       4.304160   13.000009    2.997590       1.0000      1.0079
   70   3 O    8      11.916088    6.906300    3.089838       6.0000     15.9994
   71   4 H    1      11.583350    6.171028    3.627948       1.0000      1.0079
   72   4 H    1      12.472471    7.481918    3.637561       1.0000      1.0079
   73   3 O    8      12.563996   12.545507    1.735542       6.0000     15.9994
   74   4 H    1      13.000746   13.000699    0.998690       1.0000      1.0079
   75   4 H    1      12.773128   13.000571    2.566252       1.0000      1.0079
   76   3 O    8       2.432611    6.694595    3.261629       6.0000     15.9994
   77   4 H    1       1.562874    6.989531    2.949426       1.0000      1.0079
   78   4 H    1       2.973676    7.467014    3.488597       1.0000      1.0079
   79   3 O    8       9.621512   12.485225    3.128774       6.0000     15.9994
   80   4 H    1       9.059431   13.000209    3.728571       1.0000      1.0079
   81   4 H    1       9.804727   13.005496    2.330872       1.0000      1.0079
   82   3 O    8       3.757844    3.162025    7.510504       6.0000     15.9994
   83   4 H    1       3.095058    3.868659    7.462717       1.0000      1.0079
   84   4 H    1       4.403418    3.275348    6.795458       1.0000      1.0079
   85   3 O    8       0.999265    6.401591   12.816077       6.0000     15.9994
   86   4 H    1       1.882593    6.045541   13.000085       1.0000      1.0079
   87   4 H    1       1.000455    6.837600   11.949594       1.0000      1.0079
   88   3 O    8       8.440638   10.226014    4.425133       6.0000     15.9994
   89   4 H    1       9.237243    9.705131    4.238044       1.0000      1.0079
   90   4 H    1       7.654022    9.710089    4.188586       1.0000      1.0079
   91   3 O    8       9.242042    0.992738    1.817934       6.0000     15.9994
   92   4 H    1       9.057445    1.473031    0.995655       1.0000      1.0079
   93   4 H    1      10.187925    1.055333    2.023566       1.0000      1.0079
   94   3 O    8      13.010138    8.060485   12.943328       6.0000     15.9994
   95   4 H    1      12.890700    9.021591   12.889372       1.0000      1.0079
   96   4 H    1      12.143313    7.630124   13.008925       1.0000      1.0079
   97   3 O    8       1.195559    1.201511    1.084062       6.0000     15.9994
   98   4 H    1       2.140503    0.994360    1.012863       1.0000      1.0079
   99   4 H    1       0.998884    1.509543    1.982579       1.0000      1.0079
  100   3 O    8       2.840598   12.443836    5.945615       6.0000     15.9994
  101   4 H    1       3.620776   13.000246    5.795180       1.0000      1.0079
  102   4 H    1       2.046583   13.000419    5.971176       1.0000      1.0079
  103   3 O    8       5.790461    4.858080    1.584663       6.0000     15.9994
  104   4 H    1       4.952956    5.035409    1.128549       1.0000      1.0079
  105   4 H    1       6.530990    5.076925    0.997618       1.0000      1.0079
  106   3 O    8       3.992846    8.242469   13.001707       6.0000     15.9994
  107   4 H    1       3.358251    8.420092   12.289922       1.0000      1.0079
  108   4 H    1       4.706373    8.898800   12.969968       1.0000      1.0079
  109   3 O    8       6.361578   11.055027    1.970148       6.0000     15.9994
  110   4 H    1       6.454559   11.112257    1.006312       1.0000      1.0079
  111   4 H    1       6.829784   11.796508    2.384741       1.0000      1.0079
  112   3 O    8       1.034640    1.048484    7.615934       6.0000     15.9994
  113   4 H    1       0.995695    1.939831    7.235297       1.0000      1.0079
  114   4 H    1       1.767731    0.999084    8.249208       1.0000      1.0079
  115   3 O    8       6.354264    6.215070    7.834739       6.0000     15.9994
  116   4 H    1       5.625626    5.586246    7.955429       1.0000      1.0079
  117   4 H    1       6.028019    7.003217    7.372908       1.0000      1.0079
  118   3 O    8       1.912749    4.677634    1.302696       6.0000     15.9994
  119   4 H    1       2.303964    3.849319    0.983723       1.0000      1.0079
  120   4 H    1       0.993937    4.739645    0.998005       1.0000      1.0079
  121   3 O    8       4.042136    4.013231   12.881657       6.0000     15.9994
  122   4 H    1       4.703123    3.313519   13.001656       1.0000      1.0079
  123   4 H    1       4.486776    4.874298   12.839731       1.0000      1.0079
  124   3 O    8       6.465890    5.700918    4.695891       6.0000     15.9994
  125   4 H    1       5.554009    6.030295    4.725611       1.0000      1.0079
  126   4 H    1       6.552435    4.935172    5.284992       1.0000      1.0079
  127   3 O    8       2.185472    5.657935    9.499995       6.0000     15.9994
  128   4 H    1       1.288099    5.384966    9.252792       1.0000      1.0079
  129   4 H    1       2.499749    5.108252   10.234826       1.0000      1.0079
  130   3 O    8      12.829248   12.822036   12.866606       6.0000     15.9994
  131   4 H    1      11.885605   13.001523   13.001599       1.0000      1.0079
  132   4 H    1      13.000895   11.876719   13.000064       1.0000      1.0079
  133   3 O    8      12.447959   10.284517    4.224988       6.0000     15.9994
  134   4 H    1      12.574682   11.116114    4.707987       1.0000      1.0079
  135   4 H    1      13.003855   10.284354    3.430081       1.0000      1.0079
  136   3 O    8       6.924333    1.530374   12.395350       6.0000     15.9994
  137   4 H    1       7.354101    2.246370   12.888858       1.0000      1.0079
  138   4 H    1       6.383688    0.999455   13.000928       1.0000      1.0079
  139   3 O    8       1.010731    2.070031   11.376493       6.0000     15.9994
  140   4 H    1       0.994645    2.711970   10.649474       1.0000      1.0079
  141   4 H    1       1.055168    1.171575   11.013587       1.0000      1.0079
  142   3 O    8       6.896370    4.371983   10.211589       6.0000     15.9994
  143   4 H    1       6.539550    3.478857   10.337709       1.0000      1.0079
  144   4 H    1       7.743483    4.450507   10.677562       1.0000      1.0079
  145   3 O    8       2.990697    7.082875    7.147405       6.0000     15.9994
  146   4 H    1       3.357834    7.975392    7.049821       1.0000      1.0079
  147   4 H    1       3.303116    6.523347    6.419242       1.0000      1.0079
  148   3 O    8       1.699048   10.842342   12.026577       6.0000     15.9994
  149   4 H    1       0.997129   10.173719   11.992616       1.0000      1.0079
  150   4 H    1       1.317517   11.719984   11.868221       1.0000      1.0079
  151   3 O    8       9.310396    1.052581   10.279250       6.0000     15.9994
  152   4 H    1       8.919198    1.915274   10.070387       1.0000      1.0079
  153   4 H    1       9.482312    0.997732   11.232316       1.0000      1.0079
  154   3 O    8       7.355102    9.530654    7.545916       6.0000     15.9994
[...]
    136       O      3       6.000          7.066                        -1.066
    137       H      4       1.000          0.441                         0.559
    138       H      4       1.000          0.435                         0.565
    139       O      3       6.000          7.039                        -1.039
    140       H      4       1.000          0.432                         0.568
    141       H      4       1.000          0.440                         0.560
    142       O      3       6.000          7.106                        -1.106
    143       H      4       1.000          0.432                         0.568
    144       H      4       1.000          0.426                         0.574
    145       O      3       6.000          6.956                        -0.956
    146       H      4       1.000          0.435                         0.565
    147       H      4       1.000          0.424                         0.576
    148       O      3       6.000          6.990                        -0.990
    149       H      4       1.000          0.423                         0.577
    150       H      4       1.000          0.425                         0.575
    151       O      3       6.000          6.813                        -0.813
    152       H      4       1.000          0.424                         0.576
    153       H      4       1.000          0.421                         0.579
    154       O      3       6.000          6.961                        -0.961
    155       H      4       1.000          0.423                         0.577
    156       H      4       1.000          0.433                         0.567
    157       O      3       6.000          6.801                        -0.801
    158       H      4       1.000          0.408                         0.592
    159       H      4       1.000          0.439                         0.561
    160       O      3       6.000          7.013                        -1.013
    161       H      4       1.000          0.438                         0.562
    162       H      4       1.000          0.431                         0.569
    163       O      3       6.000          7.050                        -1.050
    164       H      4       1.000          0.431                         0.569
    165       H      4       1.000          0.441                         0.559
    166       O      3       6.000          7.101                        -1.101
    167       H      4       1.000          0.439                         0.561
    168       H      4       1.000          0.434                         0.566
    169       O      3       6.000          7.072                        -1.072
    170       H      4       1.000          0.437                         0.563
    171       H      4       1.000          0.429                         0.571
    172       O      3       6.000          6.992                        -0.992
    173       H      4       1.000          0.434                         0.566
    174       H      4       1.000          0.435                         0.565
    175       O      3       6.000          7.023                        -1.023
    176       H      4       1.000          0.437                         0.563
    177       H      4       1.000          0.439                         0.561
    178       O      3       6.000          6.610                        -0.610
    179       H      4       1.000          0.416                         0.584
    180       H      4       1.000          0.428                         0.572
    181       O      3       6.000          7.019                        -1.019
    182       H      4       1.000          0.436                         0.564
    183       H      4       1.000          0.439                         0.561
    184       O      3       6.000          6.671                        -0.671
    185       H      4       1.000          0.398                         0.602
    186       H      4       1.000          0.409                         0.591
    187       O      3       6.000          6.772                        -0.772
    188       H      4       1.000          0.423                         0.577
    189       H      4       1.000          0.429                         0.571
    190       O      3       6.000          7.075                        -1.075
    191       H      4       1.000          0.439                         0.561
    192       H      4       1.000          0.432                         0.568
    193       O      3       6.000          6.799                        -0.799
    194       H      4       1.000          0.418                         0.582
    195       H      4       1.000          0.436                         0.564
    196       O      3       6.000          7.064                        -1.064
    197       H      4       1.000          0.439                         0.561
    198       H      4       1.000          0.436                         0.564

  Total Charge                                                           -0.000
 !-----------------------------------------------------------------------------!

 ENERGY| Total FORCE_EVAL ( QS ) energy [a.u.]:            -1206.261351849663924

 ATOMIC FORCES in [a.u.]

 # Atom   Kind   Element          X              Y              Z
      1      1      Cs         -0.00532195     0.00096417    -0.00546737
      2      1      Cs          0.00047927     0.00607890    -0.00373031
      3      1      Cs          0.01020399     0.00136328     0.00150340
      4      2      Cl          0.01025536    -0.00803495     0.00637687
      5      2      Cl         -0.00746486     0.00423424    -0.00859996
      6      2      Cl         -0.00097481    -0.00416585    -0.00230833
      7      3      O          -0.01556225    -0.00065191     0.00400220
      8      4      H           0.00071596    -0.00031430    -0.00242758
      9      4      H           0.01634749    -0.00359635    -0.00499221
     10      3      O           0.00971212     0.01681237    -0.01024254
     11      4      H          -0.00556770    -0.00868230     0.00597750
     12      4      H          -0.00487450    -0.00128101     0.00699312
     13      3      O           0.00867091    -0.02777517    -0.00051791
     14      4      H          -0.01294442     0.01912741    -0.01053838
     15      4      H           0.00218916     0.01272229     0.00728290
     16      3      O          -0.00715364    -0.02362457     0.00351840
     17      4      H           0.00131270     0.00875769    -0.00595500
     18      4      H           0.00184118     0.01047524     0.00428660
     19      3      O          -0.02237472    -0.02501159    -0.00764205
     20      4      H           0.01265293     0.01061262     0.00603664
     21      4      H           0.00325823     0.01022162     0.00508581
     22      3      O           0.01040481    -0.00644468    -0.02026216
     23      4      H          -0.00475982     0.00323998     0.00337454
     24      4      H          -0.01092330     0.00336779     0.01957960
     25      3      O          -0.01454448    -0.01541308    -0.02046742
     26      4      H           0.00224251     0.01011779     0.00502138
     27      4      H           0.00970162     0.00410184     0.01316240
     28      3      O           0.01324961    -0.01894870    -0.00825166
     29      4      H          -0.00956088     0.00363147     0.00108158
     30      4      H          -0.00221183     0.01169227     0.00709865
     31      3      O          -0.01133824     0.00433728    -0.00582580
     32      4      H           0.00707687    -0.00766039    -0.00053682
     33      4      H          -0.00642636    -0.00018272     0.00385728
     34      3      O          -0.00324281    -0.01383704    -0.00725231
     35      4      H          -0.00517144     0.01058001     0.00152898
     36      4      H          -0.00577050     0.00714982     0.00671129
     37      3      O           0.00829350    -0.01104179     0.03015949
     38      4      H          -0.00330538     0.00386839    -0.00921448
     39      4      H          -0.01412422     0.00516099    -0.01626306
     40      3      O          -0.00863644     0.00626680     0.01316056
     41      4      H           0.00383729     0.00358604    -0.00638576
     42      4      H          -0.00010441    -0.00214938    -0.00488535
     43      3      O           0.00811614    -0.01974593     0.01432774
     44      4      H           0.00254523     0.01469899    -0.00977707
     45      4      H          -0.01279021     0.00558684    -0.00657878
     46      3      O          -0.02087589     0.00101701    -0.00059874
     47      4      H           0.00455498     0.00183543    -0.00566505
     48      4      H           0.00507607     0.00047737    -0.00600137
     49      3      O          -0.00911670     0.01813089    -0.02974848
     50      4      H           0.00256327    -0.00731567     0.01344378
     51      4      H           0.01151575    -0.00797339     0.01487658
     52      3      O          -0.02149781     0.01751232    -0.01166286
     53      4      H           0.01714754    -0.00703601     0.00190553
     54      4      H           0.00944139    -0.01050896     0.01044675
     55      3      O          -0.01594939     0.00404315     0.01989582
     56      4      H           0.00980717     0.00377414    -0.01467393
     57      4      H           0.00986668    -0.00118232    -0.00915220
     58      3      O           0.00968836     0.02001319    -0.00256065
     59      4      H          -0.00419531    -0.00851157    -0.00090830
     60      4      H          -0.00442523    -0.01016399     0.00012479
     61      3      O           0.00977337     0.03141474     0.00515506
     62      4      H          -0.00549046    -0.01344383     0.00103505
     63      4      H          -0.00383801    -0.01431012    -0.00566327
     64      3      O           0.01107707    -0.00604334     0.00525324
     65      4      H          -0.00567711    -0.00026396    -0.00805339
     66      4      H          -0.00536244     0.00422567     0.00135356
     67      3      O           0.00781905    -0.00598787     0.00334265
     68      4      H          -0.00643310     0.00434488    -0.00031961
     69      4      H          -0.00839399    -0.00024574    -0.00218476
     70      3      O           0.00080913     0.00918206     0.00291698
     71      4      H           0.00698489    -0.00483673    -0.00163020
     72      4      H          -0.00885605    -0.00454403    -0.00200709
     73      3      O          -0.00635761     0.01816590    -0.00657243
     74      4      H           0.00063784    -0.00472927     0.00204166
     75      4      H          -0.00546351    -0.01303186     0.00131214
     76      3      O           0.01611714     0.01957070     0.00507672
     77      4      H          -0.00178527    -0.00767687    -0.00140281
     78      4      H          -0.00801131    -0.00492423    -0.00053242
     79      3      O          -0.01572447     0.01361880    -0.00378145
     80      4      H           0.00764615    -0.01035435    -0.00199759
     81      4      H           0.00967832    -0.00457982     0.00910685
     82      3      O          -0.00172204     0.00197156    -0.00905938
     83      4      H           0.00306371     0.00103222     0.00322909
     84      4      H          -0.00196505    -0.00373590     0.00969309
     85      3      O           0.01455115    -0.00125945    -0.00368110
     86      4      H          -0.00659910    -0.00035036    -0.00387235
     87      4      H          -0.00273369    -0.00220865     0.00749136
     88      3      O          -0.00056911    -0.01635924    -0.00763592
     89      4      H           0.00036103     0.00376886     0.00172130
     90      4      H           0.00409910     0.01076907     0.00771088
     91      3      O           0.01849838     0.01507305    -0.01862900
     92      4      H          -0.01132704    -0.00545052     0.00442093
     93      4      H          -0.00798335    -0.00589235     0.01370578
     94      3      O          -0.02270394     0.02237801     0.00154437
     95      4      H           0.00567537    -0.01596660     0.00415236
     96      4      H           0.01041215     0.00003695    -0.00159216
     97      3      O           0.00955959    -0.00452348    -0.00729774
     98      4      H          -0.00212439    -0.00084313     0.00650505
     99      4      H           0.00716568     0.00248516    -0.00251225
    100      3      O           0.00365155     0.01034253     0.01056446
    101      4      H          -0.00902782    -0.01006919    -0.00399546
    102      4      H           0.00465115    -0.00719213    -0.00375567
    103      3      O          -0.01582347     0.01118172    -0.01155732
    104      4      H           0.00156508    -0.00823751     0.00055040
    105      4      H           0.00846491    -0.00926268     0.00842440
    106      3      O          -0.00113402     0.02375363    -0.00523241
    107      4      H          -0.00083431    -0.01472898     0.00738875
    108      4      H           0.00397204    -0.01280928     0.00237972
    109      3      O           0.00501737     0.00724400     0.00108453
    110      4      H           0.00081488    -0.00194462    -0.01912982
    111      4      H          -0.00339094    -0.00840913     0.01425338
    112      3      O           0.01946241     0.01301631    -0.00058078
    113      4      H          -0.00818546    -0.01704986     0.00485445
    114      4      H          -0.01089634     0.00154278    -0.00735738
    115      3      O          -0.02290054    -0.00187662    -0.01961354
    116      4      H           0.01379229     0.01130493     0.00334664
    117      4      H           0.00826414    -0.01262887     0.01081557
    118      3      O          -0.00484794    -0.03047495    -0.02469726
    119      4      H           0.00734491     0.01317567     0.00662694
    120      4      H          -0.00305865     0.00982381     0.01257118
    121      3      O           0.00947274     0.01210667     0.00211557
    122      4      H          -0.00278316    -0.01272151    -0.00459597
    123      4      H          -0.00862842     0.00095023    -0.00238925
    124      3      O          -0.01524845    -0.00353704     0.00810505
    125      4      H          -0.00202531     0.00672197     0.00121101
    126      4      H           0.01508734     0.00480258    -0.00624930
    127      3      O           0.00120812    -0.00864078     0.00256740
    128      4      H          -0.00029266     0.00119530     0.00167777
    129      4      H          -0.00308330     0.00174581    -0.00054873
    130      3      O          -0.01522640    -0.01998140    -0.00546468
    131      4      H           0.01565067     0.00368595     0.00349286
    132      4      H          -0.00016220     0.01223574     0.00371797
    133      3      O           0.00913734     0.01790971    -0.00531415
    134      4      H          -0.00721918    -0.00796783     0.00385229
    135      4      H          -0.00554590    -0.00932932     0.00137315
    136      3      O          -0.00399606     0.00292370     0.02254513
    137      4      H           0.00592112     0.00579567    -0.00618438
    138      4      H          -0.00203819    -0.00117342    -0.01539519
    139      3      O           0.01115508    -0.00332310    -0.02281615
    140      4      H          -0.01050437    -0.00934959     0.01683730
    141      4      H          -0.00345074     0.01294456     0.00839095
    142      3      O          -0.00421983    -0.00344162     0.00658164
    143      4      H           0.00014926     0.00016455     0.00047798
    144      4      H           0.00272131     0.00417900    -0.00465382
    145      3      O           0.01412355     0.01232137    -0.02096237
    146      4      H          -0.00543789    -0.01110665     0.00484172
    147      4      H          -0.00913979     0.00294236     0.01184974
    148      3      O           0.01153233     0.01065406    -0.00305542
    149      4      H          -0.00678030     0.00378001    -0.00178193
    150      4      H          -0.00294643    -0.01260618     0.00252330
    151      3      O          -0.01454340     0.01272481     0.02163860
    152      4      H           0.00454967    -0.01022024    -0.01416822
    153      4      H           0.01218806    -0.01131088    -0.01243496
    154      3      O          -0.01143735     0.00078696     0.00312939
    155      4      H          -0.00191463     0.00021717    -0.00306008
    156      4      H           0.01030907    -0.00309436    -0.00125322
    157      3      O           0.02475300     0.02137521     0.00245252
    158      4      H          -0.01247523    -0.00467137     0.00037341
    159      4      H          -0.00040200    -0.01268147    -0.00310396
    160      3      O           0.00298862    -0.02145249    -0.00398942
    161      4      H           0.00082360     0.01106612     0.00392415
    162      4      H          -0.00193713     0.01260666    -0.00415590
    163      3      O           0.02919275     0.01173360     0.01299313
    164      4      H          -0.01845919    -0.01024744    -0.00349565
    165      4      H          -0.01017455    -0.00354732    -0.00903597
    166      3      O          -0.00435152     0.00005522    -0.00947235
    167      4      H           0.00538232     0.00138235     0.00683506
    168      4      H           0.00197846    -0.00224485     0.00574728
    169      3      O          -0.00970951     0.01182652    -0.00511163
    170      4      H           0.00687863     0.00122697     0.00380571
    171      4      H           0.00337518    -0.00530175     0.00669257
    172      3      O           0.01370650    -0.01200336     0.01586400
    173      4      H          -0.00240191     0.00537805    -0.00468248
    174      4      H          -0.00107140     0.00279451    -0.00084378
    175      3      O           0.02288965    -0.01447694     0.01081254
    176      4      H          -0.00950260     0.00381385    -0.00325755
    177      4      H          -0.00818118     0.00986050    -0.00479025
    178      3      O           0.03084094    -0.00824885     0.00500018
    179      4      H          -0.01057406     0.00787639     0.00508428
    180      4      H          -0.01462665     0.00282163    -0.00874205
    181      3      O          -0.00577082     0.02143918     0.00975139
    182      4      H           0.00373491    -0.00841535    -0.00707180
    183      4      H           0.00242034    -0.00651069    -0.00333896
    184      3      O          -0.00766865     0.00816373    -0.00610566
    185      4      H           0.00041832    -0.01609366    -0.00535807
    186      4      H           0.00650542    -0.00105141     0.01275128
    187      3      O           0.00839371     0.00013582     0.01523960
    188      4      H          -0.00523394     0.00260519    -0.00096564
    189      4      H          -0.00266849    -0.00140740    -0.00966954
    190      3      O           0.01656181    -0.00582643    -0.03559922
    191      4      H          -0.00772802     0.00504899     0.01593266
    192      4      H           0.00144225     0.00145962     0.01856195
    193      3      O          -0.01317961     0.00170627     0.01270301
    194      4      H           0.00430683    -0.00400472    -0.00757951
    195      4      H           0.00588826     0.00483801    -0.00603932
    196      3      O           0.01737265     0.02607541    -0.00195967
    197      4      H           0.00069171    -0.01267061     0.00838474
    198      4      H          -0.00768431    -0.01540717     0.00277244
 SUM OF ATOMIC FORCES          -0.00340530    -0.00050572    -0.00507521     0.00613267

