 DBCSR| CPU Multiplication driver                                           XSMM (U)
 DBCSR| Multrec recursion limit                                              512 (U)
 DBCSR| Multiplication stack size                                           1000 (D)
 DBCSR| Maximum elements for images                                    UNLIMITED (U)
 DBCSR| Multiplicative factor virtual images                                   1 (U)
 DBCSR| Use multiplication densification                                       T (D)
 DBCSR| Multiplication size stacks                                             3 (U)
 DBCSR| Use memory pool for CPU allocation                                     F (U)
 DBCSR| Number of 3D layers                                               SINGLE (U)
 DBCSR| Use MPI memory allocation                                              F (U)
 DBCSR| Use RMA algorithm                                                      F (U)
 DBCSR| Use Communication thread                                               T (U)
 DBCSR| Communication thread load                                             87 (D)
 DBCSR| MPI: My process id                                                     0
 DBCSR| MPI: Number of processes                                              64
 DBCSR| OMP: Current number of threads                                         1
 DBCSR| OMP: Max number of threads                                             1
 DBCSR| Split modifier for TAS multiplication algorithm                  1.0E+00 (U)


  **** **** ******  **  PROGRAM STARTED AT               2025-07-10 01:05:43.356
 ***** ** ***  *** **   PROGRAM STARTED ON                            grammar058
 **    ****   ******    PROGRAM STARTED BY                               yjw0510
 ***** **    ** ** **   PROGRAM PROCESS ID                               3671285
  **** **  *******  **  PROGRAM STARTED IN /gpfs/yjw0510/16_urea_rxn/250709_mwki
                                           m/xyz/output_T370_P200

 CP2K| version string:                                       CP2K version 2025.1
 CP2K| source code revision number:                                  git:9635df4
 CP2K| cp2kflags: omp libint fftw3 libxc libgrpp elpa parallel scalapack mpi_f08
 CP2K|             cosma xsmm spglib mkl libvori libbqb
 CP2K| is freely available from                            https://www.cp2k.org/
 CP2K| Program compiled at                           Wed Jul 9 07:14:28 KST 2025
 CP2K| Program compiled on                                               grammar
 CP2K| Program compiled for                                                local
 CP2K| Data directory path                          /home/yjw0510/libs/cp2k/data
 CP2K| Input file name                                               cp2k_md.inp
 
 GLOBAL| Force Environment number                                              1
 GLOBAL| Basis set file name                                   BASIS_MOLOPT_SCAN
 GLOBAL| Potential file name                                 GTH_POTENTIALS_SCAN
 GLOBAL| MM Potential file name                                     MM_POTENTIAL
 GLOBAL| Coordinate file name                                    T.370_P.200.xyz
 GLOBAL| Method name                                                        CP2K
 GLOBAL| Project name                                           NH3H2O_T370_P200
 GLOBAL| Run type                                                             MD
 GLOBAL| FFT library                                                       FFTW3
 GLOBAL| Diagonalization library                                            ELPA
 GLOBAL| DGEMM library                                                      BLAS
 GLOBAL| Minimum number of eigenvectors for ELPA usage                        16
 GLOBAL| Orthonormality check for eigenvectors                          DISABLED
 GLOBAL| Matrix multiplication library                                     COSMA
 GLOBAL| All-to-all communication in single precision                          F
 GLOBAL| FFTs using library dependent lengths                                  F
 GLOBAL| Grid backend                                                       AUTO
 GLOBAL| Global print level                                               MEDIUM
 GLOBAL| MPI I/O enabled                                                       T
 GLOBAL| Total number of message passing processes                            64
 GLOBAL| Number of threads for this process                                    1
 GLOBAL| This output is from process                                           0
 GLOBAL| OpenMP stack size per thread (OMP_STACKSIZE)                    default
 GLOBAL| CPU model name                          AMD EPYC 7543 32-Core Processor
 GLOBAL| CPUID                                                              1002
 GLOBAL| Compiled for CPUID                                                    0

 *** HINT in environment.F:928 :: The compiler target flags (generic) used ***
 *** to build this binary cannot exploit all extensions of this CPU model  ***
 *** (x86_avx2). Consider compiler target flags as part of FCFLAGS and     ***
 *** CFLAGS (ARCH file).                                                   ***


 MEMORY| system memory details [Kb]
 MEMORY|                        rank 0           min           max       average
 MEMORY| MemTotal            528084336     528084336     528084336     528084336
 MEMORY| MemFree             447704064     447704064     447704204     447704144
 MEMORY| Buffers                     0             0             0             0
 MEMORY| Cached               47577728      47577728      47577728      47577728
 MEMORY| Slab                  1516624       1516624       1516624       1516624
 MEMORY| SReclaimable           626220        626220        626220        626220
 MEMORY| MemLikelyFree       495908012     495908012     495908152     495908092


 *** Fundamental physical constants (SI units) ***

 *** Literature: B. J. Mohr and B. N. Taylor,
 ***             CODATA recommended values of the fundamental physical
 ***             constants: 2006, Web Version 5.1
 ***             http://physics.nist.gov/constants

 Speed of light in vacuum [m/s]                             2.99792458000000E+08
 Magnetic constant or permeability of vacuum [N/A**2]       1.25663706143592E-06
 Electric constant or permittivity of vacuum [F/m]          8.85418781762039E-12
 Planck constant (h) [J*s]                                  6.62606896000000E-34
 Planck constant (h-bar) [J*s]                              1.05457162825177E-34
 Elementary charge [C]                                      1.60217648700000E-19
 Electron mass [kg]                                         9.10938215000000E-31
 Electron g factor [ ]                                     -2.00231930436220E+00
 Proton mass [kg]                                           1.67262163700000E-27
 Fine-structure constant                                    7.29735253760000E-03
 Rydberg constant [1/m]                                     1.09737315685270E+07
 Avogadro constant [1/mol]                                  6.02214179000000E+23
 Boltzmann constant [J/K]                                   1.38065040000000E-23
 Atomic mass unit [kg]                                      1.66053878200000E-27
 Bohr radius [m]                                            5.29177208590000E-11

 *** Conversion factors ***

 [u] -> [a.u.]                                              1.82288848426455E+03
 [Angstrom] -> [Bohr] = [a.u.]                              1.88972613288564E+00
 [a.u.] = [Bohr] -> [Angstrom]                              5.29177208590000E-01
 [a.u.] -> [s]                                              2.41888432650478E-17
 [a.u.] -> [fs]                                             2.41888432650478E-02
 [a.u.] -> [J]                                              4.35974393937059E-18
 [a.u.] -> [N]                                              8.23872205491840E-08
 [a.u.] -> [K]                                              3.15774647902944E+05
 [a.u.] -> [kJ/mol]                                         2.62549961709828E+03
 [a.u.] -> [kcal/mol]                                       6.27509468713739E+02
 [a.u.] -> [Pa]                                             2.94210107994716E+13
 [a.u.] -> [bar]                                            2.94210107994716E+08
 [a.u.] -> [atm]                                            2.90362800883016E+08
 [a.u.] -> [eV]                                             2.72113838565563E+01
 [a.u.] -> [Hz]                                             6.57968392072181E+15
 [a.u.] -> [1/cm] (wave numbers)                            2.19474631370540E+05
 [a.u./Bohr**2] -> [1/cm]                                   5.14048714338585E+03
 

 CELL_TOP| Volume [angstrom^3]:                                      2323.558966
 CELL_TOP| Vector a [angstrom    13.245     0.000     0.000   |a| =    13.244978
 CELL_TOP| Vector b [angstrom     0.000    13.245     0.000   |b| =    13.244978
 CELL_TOP| Vector c [angstrom     0.000     0.000    13.245   |c| =    13.244978
 CELL_TOP| Angle (b,c), alpha [degree]:                                90.000000
 CELL_TOP| Angle (a,c), beta  [degree]:                                90.000000
 CELL_TOP| Angle (a,b), gamma [degree]:                                90.000000
 CELL_TOP| Numerically orthorhombic:                                         YES
 CELL_TOP| Periodicity                                                       XYZ
 
 GENERATE|  Preliminary Number of Bonds generated:                             0
 GENERATE|  Achieved consistency in connectivity generation.

 CELL| Volume [angstrom^3]:                                          2323.558966
 CELL| Vector a [angstrom]:      13.245     0.000     0.000   |a| =    13.244978
 CELL| Vector b [angstrom]:       0.000    13.245     0.000   |b| =    13.244978
 CELL| Vector c [angstrom]:       0.000     0.000    13.245   |c| =    13.244978
 CELL| Angle (b,c), alpha [degree]:                                    90.000000
 CELL| Angle (a,c), beta  [degree]:                                    90.000000
 CELL| Angle (a,b), gamma [degree]:                                    90.000000
 CELL| Numerically orthorhombic:                                             YES
 CELL| Periodicity                                                           XYZ

 CELL_REF| Volume [angstrom^3]:                                      2323.558966
 CELL_REF| Vector a [angstrom    13.245     0.000     0.000   |a| =    13.244978
 CELL_REF| Vector b [angstrom     0.000    13.245     0.000   |b| =    13.244978
 CELL_REF| Vector c [angstrom     0.000     0.000    13.245   |c| =    13.244978
 CELL_REF| Angle (b,c), alpha [degree]:                                90.000000
 CELL_REF| Angle (a,c), beta  [degree]:                                90.000000
 CELL_REF| Angle (a,b), gamma [degree]:                                90.000000
 CELL_REF| Numerically orthorhombic:                                         YES
 CELL_REF| Periodicity                                                       XYZ

 *******************************************************************************
 *******************************************************************************
 **                                                                           **
 **     #####                         ##              ##                      **
 **    ##   ##            ##          ##              ##                      **
 **   ##     ##                       ##            ######                    **
 **   ##     ##  ##   ##  ##   #####  ##  ##   ####   ##    #####    #####    **
 **   ##     ##  ##   ##  ##  ##      ## ##   ##      ##   ##   ##  ##   ##   **
 **   ##  ## ##  ##   ##  ##  ##      ####     ###    ##   ######   ######    **
 **    ##  ###   ##   ##  ##  ##      ## ##      ##   ##   ##       ##        **
 **     #######   #####   ##   #####  ##  ##  ####    ##    #####   ##        **
 **           ##                                                    ##        **
 **                                                                           **
 **                                                ... make the atoms dance   **
 **                                                                           **
 **            Copyright (C) by CP2K developers group (2000-2025)             **
 **                      J. Chem. Phys. 152, 194103 (2020)                    **
 **                                                                           **
 *******************************************************************************

 DFT| Spin restricted Kohn-Sham (RKS) calculation                            RKS
 DFT| Multiplicity                                                             1
 DFT| Number of spin states                                                    1
 DFT| Charge                                                                   0
 DFT| Self-interaction correction (SIC)                                       NO
 DFT| Cutoffs: density                                              1.000000E-10
 DFT|          gradient                                             1.000000E-10
 DFT|          tau                                                  1.000000E-10
 DFT|          cutoff_smoothing_range                               0.000000E+00
 DFT| XC density smoothing                                                  NN50
 DFT| XC derivatives                                                     SPLINE3

 FUNCTIONAL| MGGA_X_R2SCAN:
 FUNCTIONAL| [1] J. W. Furness, A. D. Kaplan, J. Ning, J. P. Perdew, and J. Sun.
 FUNCTIONAL| ,  J. Phys. Chem. Lett. 11, 8208-8215 (2020), doi: 10.1021/acs.jpcl
 FUNCTIONAL| ett.0c02405                                                        
 FUNCTIONAL| Optional external parameters:                                      
 FUNCTIONAL|  * c1 parameter                                                    
 FUNCTIONAL|  * c2 parameter                                                    
 FUNCTIONAL|  * d parameter                                                     
 FUNCTIONAL|  * k1 parameter                                                    
 FUNCTIONAL|  * eta parameter                                                   
 FUNCTIONAL|  * dp2 parameter                                                   
 FUNCTIONAL| {scale=1.000, spin-unpolarized}                                    
 FUNCTIONAL| MGGA_C_R2SCAN:
 FUNCTIONAL| [1] J. W. Furness, A. D. Kaplan, J. Ning, J. P. Perdew, and J. Sun.
 FUNCTIONAL| ,  J. Phys. Chem. Lett. 11, 8208-8215 (2020), doi: 10.1021/acs.jpcl
 FUNCTIONAL| ett.0c02405                                                        
 FUNCTIONAL| Optional external parameters:                                      
 FUNCTIONAL|  * Regularization parameter                                        
 FUNCTIONAL| {scale=1.000, spin-unpolarized}                                    


 QS| Method:                                                                 GPW
 QS| Density plane wave grid type                        NON-SPHERICAL FULLSPACE
 QS| Number of grid levels:                                                    5
 QS| Density cutoff [a.u.]:                                                600.0
 QS| Multi grid cutoff [a.u.]: 1) grid level                               600.0
 QS|                           2) grid level                               200.0
 QS|                           3) grid level                                66.7
 QS|                           4) grid level                                22.2
 QS|                           5) grid level                                 7.4
 QS| Grid level progression factor:                                          3.0
 QS| Relative density cutoff [a.u.]:                                        30.0
 QS| Interaction thresholds: eps_pgf_orb:                                1.0E-07
 QS|                         eps_filter_matrix:                          0.0E+00
 QS|                         eps_core_charge:                            1.0E-16
 QS|                         eps_rho_gspace:                             1.0E-14
 QS|                         eps_rho_rspace:                             1.0E-14
 QS|                         eps_gvg_rspace:                             1.0E-07
 QS|                         eps_ppl:                                    1.0E-02
 QS|                         eps_ppnl:                                   1.0E-09


 ATOMIC KIND INFORMATION

  1. Atomic kind: H                                     Number of atoms:     144

     Orbital Basis Set                                  TZV2P-MOLOPT-SCAN-GTH-q1

       Number of orbital shell sets:                                           1
       Number of orbital shells:                                               6
       Number of primitive Cartesian functions:                                5
       Number of Cartesian basis functions:                                   15
       Number of spherical basis functions:                                   14
       Norm type:                                                              2

       Normalised Cartesian orbitals:

                        Set   Shell   Orbital            Exponent    Coefficient

                          1       1    2s                9.168765       0.095357
                                                         2.161194       0.125778
                                                         0.619868       0.162183
                                                         0.161316       0.074849
                                                         0.412255       0.090962

                          1       2    3s                9.168765      -0.435739
                                                         2.161194      -0.868971
                                                         0.619868      -0.406683
                                                         0.161316      -0.142964
                                                         0.412255       0.978336

                          1       3    4s                9.168765       0.385896
                                                         2.161194       1.113624
                                                         0.619868       0.043366
                                                         0.161316      -0.067676
                                                         0.412255       0.053421

                          1       4    3px               9.168765      -1.788640
                                                         2.161194       0.906920
                                                         0.619868       0.273605
                                                         0.161316       0.091389
                                                         0.412255       0.008094
                          1       4    3py               9.168765      -1.788640
                                                         2.161194       0.906920
                                                         0.619868       0.273605
                                                         0.161316       0.091389
                                                         0.412255       0.008094
                          1       4    3pz               9.168765      -1.788640
                                                         2.161194       0.906920
                                                         0.619868       0.273605
                                                         0.161316       0.091389
                                                         0.412255       0.008094

                          1       5    4px               9.168765       3.833256
                                                         2.161194      -1.958439
                                                         0.619868      -0.594902
                                                         0.161316       0.094348
                                                         0.412255      -0.017587
                          1       5    4py               9.168765       3.833256
                                                         2.161194      -1.958439
                                                         0.619868      -0.594902
                                                         0.161316       0.094348
                                                         0.412255      -0.017587
                          1       5    4pz               9.168765       3.833256
                                                         2.161194      -1.958439
                                                         0.619868      -0.594902
                                                         0.161316       0.094348
                                                         0.412255      -0.017587

                          1       6    4dx2              9.168765       0.046944
                                                         2.161194       0.005757
                                                         0.619868      -0.000296
                                                         0.161316       0.067696
                                                         0.412255      -0.000784
                          1       6    4dxy              9.168765       0.081310
                                                         2.161194       0.009971
                                                         0.619868      -0.000513
                                                         0.161316       0.117253
                                                         0.412255      -0.001358
                          1       6    4dxz              9.168765       0.081310
                                                         2.161194       0.009971
                                                         0.619868      -0.000513
                                                         0.161316       0.117253
                                                         0.412255      -0.001358
                          1       6    4dy2              9.168765       0.046944
                                                         2.161194       0.005757
                                                         0.619868      -0.000296
                                                         0.161316       0.067696
                                                         0.412255      -0.000784
                          1       6    4dyz              9.168765       0.081310
                                                         2.161194       0.009971
                                                         0.619868      -0.000513
                                                         0.161316       0.117253
                                                         0.412255      -0.001358
                          1       6    4dz2              9.168765       0.046944
                                                         2.161194       0.005757
                                                         0.619868      -0.000296
                                                         0.161316       0.067696
                                                         0.412255      -0.000784

       Atomic covalent radius [Angstrom]:                                  0.320

       Atomic van der Waals radius [Angstrom]:                             1.090

     GTH Potential information for                                   GTH-SCAN-q1

       Description:                       Goedecker-Teter-Hutter pseudopotential
                                           Goedecker et al., PRB 54, 1703 (1996)
                                          Hartwigsen et al., PRB 58, 3641 (1998)
                                                      Krack, TCA 114, 145 (2005)

       Gaussian exponent of the core charge distribution:              12.429143
       Electronic configuration (s p d ...):                       1   0   0   0

       Parameters of the local part of the GTH pseudopotential:

                          rloc        C1          C2          C3          C4
                        0.200569   -4.177243    0.723816

  2. Atomic kind: N                                     Number of atoms:      48

     Orbital Basis Set                                  TZV2P-MOLOPT-SCAN-GTH-q5

       Number of orbital shell sets:                                           1
       Number of orbital shells:                                               9
       Number of primitive Cartesian functions:                                5
       Number of Cartesian basis functions:                                   34
       Number of spherical basis functions:                                   29
       Norm type:                                                              2

       Normalised Cartesian orbitals:

                        Set   Shell   Orbital            Exponent    Coefficient

                          1       1    2s                7.741240      -0.372569
                                                         2.739304      -0.219396
                                                         1.077565       0.278149
                                                         0.425476       0.232020
                                                         0.142415       0.034612

                          1       2    3s                7.741240       0.271946
                                                         2.739304       0.236866
                                                         1.077565      -0.248170
                                                         0.425476      -0.061031
                                                         0.142415       0.200154

                          1       3    4s                7.741240      -1.413950
                                                         2.739304      -2.318830
                                                         1.077565       1.978599
                                                         0.425476      -0.833623
                                                         0.142415       0.105972

                          1       4    3px               7.741240      -1.168229
                                                         2.739304      -0.942518
                                                         1.077565      -0.541668
                                                         0.425476      -0.212751
                                                         0.142415      -0.025014
                          1       4    3py               7.741240      -1.168229
                                                         2.739304      -0.942518
                                                         1.077565      -0.541668
                                                         0.425476      -0.212751
                                                         0.142415      -0.025014
                          1       4    3pz               7.741240      -1.168229
                                                         2.739304      -0.942518
                                                         1.077565      -0.541668
                                                         0.425476      -0.212751
                                                         0.142415      -0.025014

                          1       5    4px               7.741240       0.928701
                                                         2.739304       0.844788
                                                         1.077565       0.526172
                                                         0.425476       0.069589
                                                         0.142415      -0.132325
                          1       5    4py               7.741240       0.928701
                                                         2.739304       0.844788
                                                         1.077565       0.526172
                                                         0.425476       0.069589
                                                         0.142415      -0.132325
                          1       5    4pz               7.741240       0.928701
                                                         2.739304       0.844788
                                                         1.077565       0.526172
                                                         0.425476       0.069589
                                                         0.142415      -0.132325

                          1       6    5px               7.741240       1.578027
                                                         2.739304       2.303105
                                                         1.077565       1.543896
                                                         0.425476      -0.542746
                                                         0.142415       0.030053
                          1       6    5py               7.741240       1.578027
                                                         2.739304       2.303105
                                                         1.077565       1.543896
                                                         0.425476      -0.542746
                                                         0.142415       0.030053
                          1       6    5pz               7.741240       1.578027
                                                         2.739304       2.303105
                                                         1.077565       1.543896
                                                         0.425476      -0.542746
                                                         0.142415       0.030053

                          1       7    4dx2              7.741240      -0.128620
                                                         2.739304       0.958133
                                                         1.077565       0.733739
                                                         0.425476       0.247613
                                                         0.142415      -0.003923
                          1       7    4dxy              7.741240      -0.222777
                                                         2.739304       1.659536
                                                         1.077565       1.270873
                                                         0.425476       0.428878
                                                         0.142415      -0.006794
                          1       7    4dxz              7.741240      -0.222777
                                                         2.739304       1.659536
                                                         1.077565       1.270873
                                                         0.425476       0.428878
                                                         0.142415      -0.006794
                          1       7    4dy2              7.741240      -0.128620
                                                         2.739304       0.958133
                                                         1.077565       0.733739
                                                         0.425476       0.247613
                                                         0.142415      -0.003923
                          1       7    4dyz              7.741240      -0.222777
                                                         2.739304       1.659536
                                                         1.077565       1.270873
                                                         0.425476       0.428878
                                                         0.142415      -0.006794
                          1       7    4dz2              7.741240      -0.128620
                                                         2.739304       0.958133
                                                         1.077565       0.733739
                                                         0.425476       0.247613
                                                         0.142415      -0.003923

                          1       8    5dx2              7.741240      -0.304250
                                                         2.739304      -2.504939
                                                         1.077565      -1.920826
                                                         0.425476       0.242157
                                                         0.142415       0.010511
                          1       8    5dxy              7.741240      -0.526976
                                                         2.739304      -4.338681
                                                         1.077565      -3.326968
                                                         0.425476       0.419428
                                                         0.142415       0.018205
                          1       8    5dxz              7.741240      -0.526976
                                                         2.739304      -4.338681
                                                         1.077565      -3.326968
                                                         0.425476       0.419428
                                                         0.142415       0.018205
                          1       8    5dy2              7.741240      -0.304250
                                                         2.739304      -2.504939
                                                         1.077565      -1.920826
                                                         0.425476       0.242157
                                                         0.142415       0.010511
                          1       8    5dyz              7.741240      -0.526976
                                                         2.739304      -4.338681
                                                         1.077565      -3.326968
                                                         0.425476       0.419428
                                                         0.142415       0.018205
                          1       8    5dz2              7.741240      -0.304250
                                                         2.739304      -2.504939
                                                         1.077565      -1.920826
                                                         0.425476       0.242157
                                                         0.142415       0.010511

                          1       9    5fx3              7.741240      -0.373381
                                                         2.739304       0.055209
                                                         1.077565       0.003709
                                                         0.425476       0.214826
                                                         0.142415      -0.000002
                          1       9    5fx2y             7.741240      -0.834905
                                                         2.739304       0.123450
                                                         1.077565       0.008294
                                                         0.425476       0.480365
                                                         0.142415      -0.000004
                          1       9    5fx2z             7.741240      -0.834905
                                                         2.739304       0.123450
                                                         1.077565       0.008294
                                                         0.425476       0.480365
                                                         0.142415      -0.000004
                          1       9    5fxy2             7.741240      -0.834905
                                                         2.739304       0.123450
                                                         1.077565       0.008294
                                                         0.425476       0.480365
                                                         0.142415      -0.000004
                          1       9    5fxyz             7.741240      -1.446099
                                                         2.739304       0.213822
                                                         1.077565       0.014365
                                                         0.425476       0.832016
                                                         0.142415      -0.000006
                          1       9    5fxz2             7.741240      -0.834905
                                                         2.739304       0.123450
                                                         1.077565       0.008294
                                                         0.425476       0.480365
                                                         0.142415      -0.000004
                          1       9    5fy3              7.741240      -0.373381
                                                         2.739304       0.055209
                                                         1.077565       0.003709
                                                         0.425476       0.214826
                                                         0.142415      -0.000002
                          1       9    5fy2z             7.741240      -0.834905
                                                         2.739304       0.123450
                                                         1.077565       0.008294
                                                         0.425476       0.480365
                                                         0.142415      -0.000004
                          1       9    5fyz2             7.741240      -0.834905
                                                         2.739304       0.123450
                                                         1.077565       0.008294
                                                         0.425476       0.480365
                                                         0.142415      -0.000004
                          1       9    5fz3              7.741240      -0.373381
                                                         2.739304       0.055209
                                                         1.077565       0.003709
                                                         0.425476       0.214826
                                                         0.142415      -0.000002

       Atomic covalent radius [Angstrom]:                                  0.750

       Atomic van der Waals radius [Angstrom]:                             1.550

     GTH Potential information for                                   GTH-SCAN-q5

       Description:                       Goedecker-Teter-Hutter pseudopotential
                                           Goedecker et al., PRB 54, 1703 (1996)
                                          Hartwigsen et al., PRB 58, 3641 (1998)
                                                      Krack, TCA 114, 145 (2005)

       Gaussian exponent of the core charge distribution:               6.165682
       Electronic configuration (s p d ...):                       2   3   0   0

       Parameters of the local part of the GTH pseudopotential:

                          rloc        C1          C2          C3          C4
                        0.284770  -12.418435    1.850749

       Parameters of the non-local part of the GTH pseudopotential:

                   l      r(l)      h(i,j,l)

                   0    0.256275   13.645095


 MOLECULE KIND INFORMATION


 All atoms are their own molecule, skipping detailed information


 TOTAL NUMBERS AND MAXIMUM NUMBERS

  Total number of            - Atomic kinds:                                   2
                             - Atoms:                                        192
                             - Shell sets:                                   192
                             - Shells:                                      1296
                             - Primitive Cartesian functions:                960
                             - Cartesian basis functions:                   3792
                             - Spherical basis functions:                   3408

  Maximum angular momentum of- Orbital basis functions:                        3
                             - Local part of the GTH pseudopotential:          2
                             - Non-local part of the GTH pseudopotential:      0


 MODULE QUICKSTEP: ATOMIC COORDINATES IN ANGSTROM

   Atom Kind Element         X             Y             Z       Z(eff)     Mass
      1    1 H     1     14.585100      6.838720      8.781390   1.0000   1.0079
      2    1 H     1     13.906800      8.102820      9.598670   1.0000   1.0079
      3    1 H     1     12.998800      7.108770      8.648430   1.0000   1.0079
      4    1 H     1      3.638360      7.018820      1.968030   1.0000   1.0079
      5    1 H     1      4.325030      7.831090     14.002800   1.0000   1.0079
      6    1 H     1      4.893990      8.040430      2.194800   1.0000   1.0079
      7    1 H     1     14.166500     13.897500      6.682380   1.0000   1.0079
      8    1 H     1      2.238580     14.007700      7.626840   1.0000   1.0079
      9    1 H     1     13.983200     14.155100      8.248090   1.0000   1.0079
     10    1 H     1     12.567200     11.572400      5.138160   1.0000   1.0079
     11    1 H     1     11.952700     13.006400      5.608760   1.0000   1.0079
     12    1 H     1     11.228000     11.678900      6.268010   1.0000   1.0079
     13    1 H     1     10.194100      4.265380      2.151200   1.0000   1.0079
     14    1 H     1      9.640210      2.839160     14.942000   1.0000   1.0079
     15    1 H     1      8.767950      3.671330      2.638690   1.0000   1.0079
     16    1 H     1      6.253710      4.450280     11.824700   1.0000   1.0079
     17    1 H     1      7.275570      4.973600     10.559400   1.0000   1.0079
     18    1 H     1      5.661690      5.412730     10.685700   1.0000   1.0079
     19    1 H     1      3.800060      9.801060      3.268350   1.0000   1.0079
     20    1 H     1      4.798940      9.488240      4.383940   1.0000   1.0079
     21    1 H     1      4.726200     10.988900      3.708010   1.0000   1.0079
     22    1 H     1     12.883700     10.611900      3.572310   1.0000   1.0079
     23    1 H     1     14.408400     10.080200      3.367560   1.0000   1.0079
     24    1 H     1     13.389400      9.740610      2.248700   1.0000   1.0079
     25    1 H     1      3.510200      5.046080      3.317810   1.0000   1.0079
     26    1 H     1      3.388750      4.378750      1.909770   1.0000   1.0079
     27    1 H     1      2.006780      4.911640      2.520870   1.0000   1.0079
     28    1 H     1     10.180100     11.772300      3.590370   1.0000   1.0079
     29    1 H     1     10.434800     10.322900      2.883260   1.0000   1.0079
     30    1 H     1     10.568400     11.601700      1.933180   1.0000   1.0079
     31    1 H     1      6.573130     13.441100     10.315300   1.0000   1.0079
     32    1 H     1      6.364450     14.979900     10.600600   1.0000   1.0079
     33    1 H     1      5.621950     13.802300     11.473400   1.0000   1.0079
     34    1 H     1     10.820000      4.824170     12.473100   1.0000   1.0079
     35    1 H     1     12.127100      5.466210     11.694500   1.0000   1.0079
     36    1 H     1     11.793300      5.937950     13.197500   1.0000   1.0079
     37    1 H     1     12.225200     14.671700     14.380100   1.0000   1.0079
     38    1 H     1     10.921500     14.030800     15.281200   1.0000   1.0079
     39    1 H     1     12.201800     14.546500      2.893230   1.0000   1.0079
     40    1 H     1     11.735800     10.234700     12.656600   1.0000   1.0079
     41    1 H     1     13.104200     11.224000     12.373100   1.0000   1.0079
     42    1 H     1     12.505900     10.843100     13.958200   1.0000   1.0079
     43    1 H     1      3.054940      5.954460     12.972400   1.0000   1.0079
     44    1 H     1      3.546520      5.655750     11.421400   1.0000   1.0079
     45    1 H     1      3.517100      4.471480     12.493800   1.0000   1.0079
     46    1 H     1      6.571970     12.528200      4.142030   1.0000   1.0079
     47    1 H     1      6.318020     13.812100      3.279520   1.0000   1.0079
     48    1 H     1      7.389350     12.672700      2.723760   1.0000   1.0079
     49    1 H     1     14.203800      7.411980     15.082400   1.0000   1.0079
     50    1 H     1     13.501200      6.958690     13.647900   1.0000   1.0079
     51    1 H     1     13.920900      8.449780     13.875200   1.0000   1.0079
     52    1 H     1     10.691600      7.448120      4.534130   1.0000   1.0079
     53    1 H     1      9.002090      7.696400      4.156790   1.0000   1.0079
     54    1 H     1      9.722230      8.945300      4.697010   1.0000   1.0079
     55    1 H     1     11.064800      8.017610     11.912100   1.0000   1.0079
     56    1 H     1     10.483500      9.026810     10.668300   1.0000   1.0079
     57    1 H     1      9.798500      9.149710     12.100600   1.0000   1.0079
     58    1 H     1      8.249650     14.183100     12.455500   1.0000   1.0079
     59    1 H     1      9.776440     13.373400     12.688000   1.0000   1.0079
     60    1 H     1      8.822800     13.551700     13.886500   1.0000   1.0079
     61    1 H     1      9.627950      4.665830      9.346760   1.0000   1.0079
     62    1 H     1      9.890240      6.211030     10.114400   1.0000   1.0079
     63    1 H     1      8.402690      5.864960      9.367560   1.0000   1.0079
     64    1 H     1     14.712200     12.043700      9.237970   1.0000   1.0079
     65    1 H     1     14.662300     11.673200     10.813600   1.0000   1.0079
     66    1 H     1     13.608500     11.240600      9.761900   1.0000   1.0079
     67    1 H     1      8.533040      5.781460     13.986900   1.0000   1.0079
     68    1 H     1      9.087350      7.257680     13.997000   1.0000   1.0079
     69    1 H     1      7.810010      6.851620     13.012500   1.0000   1.0079
     70    1 H     1     13.832700      7.323700      6.038780   1.0000   1.0079
     71    1 H     1     13.378800      8.290820      4.751710   1.0000   1.0079
     72    1 H     1     13.816100      6.784670      4.491410   1.0000   1.0079
     73    1 H     1      2.967280      8.779600      9.729230   1.0000   1.0079
     74    1 H     1      4.510600      8.385180      9.980810   1.0000   1.0079
     75    1 H     1      3.863540      8.283380      8.444060   1.0000   1.0079
     76    1 H     1      6.525520      2.547760     13.866300   1.0000   1.0079
     77    1 H     1      5.804780      3.818110     14.761100   1.0000   1.0079
     78    1 H     1      4.917470      2.802680     14.059100   1.0000   1.0079
     79    1 H     1      5.868040     12.301100     14.442700   1.0000   1.0079
     80    1 H     1      6.411600     11.747300     12.993300   1.0000   1.0079
     81    1 H     1      4.746140     11.794300     13.495600   1.0000   1.0079
     82    1 H     1      4.691230     13.825200      6.650660   1.0000   1.0079
     83    1 H     1      4.198270     12.252000      6.871750   1.0000   1.0079
     84    1 H     1      5.126310     12.880200      7.981540   1.0000   1.0079
     85    1 H     1      7.347530      5.351530      4.125230   1.0000   1.0079
     86    1 H     1      6.393240      6.782260      3.816770   1.0000   1.0079
     87    1 H     1      7.081430      5.978040      2.567770   1.0000   1.0079
     88    1 H     1     11.068800     11.481900     10.675900   1.0000   1.0079
     89    1 H     1     12.095400     12.587400     10.377300   1.0000   1.0079
     90    1 H     1     10.702600     12.498000      9.570260   1.0000   1.0079
     91    1 H     1      2.146850      2.661410     13.490200   1.0000   1.0079
     92    1 H     1     13.935500      2.734430     14.459000   1.0000   1.0079
     93    1 H     1     14.176800      3.789830     13.197100   1.0000   1.0079
     94    1 H     1      5.967830      3.153290      5.892390   1.0000   1.0079
     95    1 H     1      6.459540     14.925500      6.496800   1.0000   1.0079
     96    1 H     1      7.010010      3.079720      7.245710   1.0000   1.0079
     97    1 H     1     12.352700      5.645180      2.993420   1.0000   1.0079
     98    1 H     1     12.343800      4.288290      2.094400   1.0000   1.0079
     99    1 H     1     12.609000      4.204320      3.664290   1.0000   1.0079
    100    1 H     1      9.025050     13.572200      4.435550   1.0000   1.0079
    101    1 H     1      9.048870     14.092400      6.004720   1.0000   1.0079
    102    1 H     1      9.258810     12.497900      5.652370   1.0000   1.0079
    103    1 H     1     11.436100      8.218260      7.370120   1.0000   1.0079
    104    1 H     1     10.331000      9.423400      7.150040   1.0000   1.0079
    105    1 H     1     11.505400      9.452210      8.389040   1.0000   1.0079
    106    1 H     1      9.264990     14.292900      9.994080   1.0000   1.0079
    107    1 H     1      9.412950      2.428540     10.748500   1.0000   1.0079
    108    1 H     1     10.822900     14.750900     10.288600   1.0000   1.0079
    109    1 H     1     12.316800      2.939740      5.836250   1.0000   1.0079
    110    1 H     1     11.587600      1.800980      4.777240   1.0000   1.0079
    111    1 H     1     13.277500      1.959010      5.018180   1.0000   1.0079
    112    1 H     1      7.560200     10.445700     14.892500   1.0000   1.0079
    113    1 H     1      7.917790      9.081590     14.227300   1.0000   1.0079
    114    1 H     1      6.440830      9.685860     13.901300   1.0000   1.0079
    115    1 H     1     13.133300      2.828520     10.059400   1.0000   1.0079
    116    1 H     1     13.785400      1.789930     11.076200   1.0000   1.0079
    117    1 H     1     14.720600      2.249600     10.006900   1.0000   1.0079
    118    1 H     1     14.659300     13.925200      3.027530   1.0000   1.0079
    119    1 H     1      2.409450     13.413300      4.174640   1.0000   1.0079
    120    1 H     1     14.329300     12.541000      3.742670   1.0000   1.0079
    121    1 H     1      4.969180      3.506100      8.991030   1.0000   1.0079
    122    1 H     1      3.598620      3.421820      9.804880   1.0000   1.0079
    123    1 H     1      4.312750      1.979410      9.316020   1.0000   1.0079
    124    1 H     1      2.339610      9.849680      5.871790   1.0000   1.0079
    125    1 H     1     14.243900     10.237700      6.790240   1.0000   1.0079
    126    1 H     1     14.951400     11.299700      5.847000   1.0000   1.0079
    127    1 H     1      3.005880      2.774210      5.098850   1.0000   1.0079
    128    1 H     1      3.231610      2.942800      6.810980   1.0000   1.0079
    129    1 H     1      2.553160      4.040030      5.990240   1.0000   1.0079
    130    1 H     1      7.641840      8.052710     11.252700   1.0000   1.0079
    131    1 H     1      6.386970      7.295650     10.436700   1.0000   1.0079
    132    1 H     1      7.598750      7.951300      9.652150   1.0000   1.0079
    133    1 H     1     10.299700      4.719770      6.087540   1.0000   1.0079
    134    1 H     1     11.759800      5.403520      6.027650   1.0000   1.0079
    135    1 H     1     10.931100      4.994940      7.571330   1.0000   1.0079
    136    1 H     1      6.326290      9.722290      6.076820   1.0000   1.0079
    137    1 H     1      7.450490      8.810720      6.814520   1.0000   1.0079
    138    1 H     1      7.478110      9.295770      5.266560   1.0000   1.0079
    139    1 H     1      4.588170      6.509040      4.461150   1.0000   1.0079
    140    1 H     1      5.085400      7.199460      5.835930   1.0000   1.0079
    141    1 H     1      4.455650      5.819510      5.901130   1.0000   1.0079
    142    1 H     1      4.583920     10.486000      9.870440   1.0000   1.0079
    143    1 H     1      5.471760     11.757400     10.519800   1.0000   1.0079
    144    1 H     1      6.220440     10.404900      9.756180   1.0000   1.0079
    145    2 N     7     13.908300      7.561340      8.745330   5.0000  14.0067
    146    2 N     7      4.054710      7.975560     14.939000   5.0000  14.0067
    147    2 N     7     14.510800     13.591000      7.584460   5.0000  14.0067
    148    2 N     7     11.749800     12.055500      5.415840   5.0000  14.0067
    149    2 N     7      9.374900      3.777160      1.872960   5.0000  14.0067
    150    2 N     7      6.336020      4.660940     10.868900   5.0000  14.0067
    151    2 N     7      4.182570     10.244000      4.160390   5.0000  14.0067
    152    2 N     7     13.656700     10.495500      2.877660   5.0000  14.0067
    153    2 N     7      3.000180      5.117520      2.458680   5.0000  14.0067
    154    2 N     7      9.951040     11.239200      2.697860   5.0000  14.0067
    155    2 N     7      6.484490     14.134900     11.061100   5.0000  14.0067
    156    2 N     7     11.806700      5.094190     12.591800   5.0000  14.0067
    157    2 N     7     11.718400     14.696900     15.243000   5.0000  14.0067
    158    2 N     7     12.267200     11.040900     13.006400   5.0000  14.0067
    159    2 N     7      3.009150      5.305800     12.211100   5.0000  14.0067
    160    2 N     7      6.456300     12.786600      3.165170   5.0000  14.0067
    161    2 N     7     13.525400      7.681030     14.405000   5.0000  14.0067
    162    2 N     7      9.971620      8.103100      4.191200   5.0000  14.0067
    163    2 N     7     10.238600      8.513250     11.501000   5.0000  14.0067
    164    2 N     7      9.098310     14.078200     13.051400   5.0000  14.0067
    165    2 N     7      9.242480      5.498780      9.833610   5.0000  14.0067
    166    2 N     7     14.581100     11.233300      9.852920   5.0000  14.0067
    167    2 N     7      8.190020      6.745030     13.953700   5.0000  14.0067
    168    2 N     7     13.258600      7.327900      5.179550   5.0000  14.0067
    169    2 N     7      3.635030      8.107440      9.419450   5.0000  14.0067
    170    2 N     7      5.790810      3.269690     13.887400   5.0000  14.0067
    171    2 N     7      5.638650     12.263700     13.474500   5.0000  14.0067
    172    2 N     7      4.407460     13.099000      7.328160   5.0000  14.0067
    173    2 N     7      6.660360      5.810140      3.491410   5.0000  14.0067
    174    2 N     7     11.500000     11.948500      9.897550   5.0000  14.0067
    175    2 N     7     14.385500      2.805230     13.506700   5.0000  14.0067
    176    2 N     7      6.794140      2.661210      6.348040   5.0000  14.0067
    177    2 N     7     12.849900      4.751010      2.861300   5.0000  14.0067
    178    2 N     7      8.762920     13.356300      5.383240   5.0000  14.0067
    179    2 N     7     10.918800      8.919270      7.808550   5.0000  14.0067
    180    2 N     7      9.895990     15.062300     10.012600   5.0000  14.0067
    181    2 N     7     12.385600      2.006060      5.409840   5.0000  14.0067
    182    2 N     7      7.442810      9.944960     13.977300   5.0000  14.0067
    183    2 N     7     13.724100      1.997680     10.071500   5.0000  14.0067
    184    2 N     7     14.638400     13.483800      3.887620   5.0000  14.0067
    185    2 N     7      4.113400      2.930890      9.043600   5.0000  14.0067
    186    2 N     7     14.696000     10.325000      5.918500   5.0000  14.0067
    187    2 N     7      3.274540      3.347430      5.899080   5.0000  14.0067
    188    2 N     7      6.971980      8.130010     10.420300   5.0000  14.0067
    189    2 N     7     11.164400      4.700910      6.597970   5.0000  14.0067
    190    2 N     7      6.928500      8.893860      5.978590   5.0000  14.0067
    191    2 N     7      4.255130      6.714400      5.418030   5.0000  14.0067
    192    2 N     7      5.454000     11.056400      9.732750   5.0000  14.0067



 SCF PARAMETERS         Density guess:                                    ATOMIC
                        --------------------------------------------------------
                        max_scf:                                             200
                        max_scf_history:                                       0
                        max_diis:                                              4
                        --------------------------------------------------------
                        eps_scf:                                        1.00E-06
                        eps_scf_history:                                0.00E+00
                        eps_diis:                                       1.00E-01
                        eps_eigval:                                     1.00E-05
                        --------------------------------------------------------
                        level_shift [a.u.]:                             0.000000
                        --------------------------------------------------------
                        Outer loop SCF in use 
                        No variables optimised in outer loop
                        eps_scf                                         1.00E-06
                        max_scf                                               20
                        No outer loop optimization
                        step_size                                       5.00E-01

 PW_GRID| Information for grid number                                          1
 PW_GRID| Grid distributed over                                    64 processors
 PW_GRID| Real space group dimensions                                    64    1
 PW_GRID| the grid is blocked:                                                NO
 PW_GRID| Cutoff [a.u.]                                                    600.0
 PW_GRID| spherical cutoff:                                                   NO
 PW_GRID|   Bounds   1           -144     143                Points:         288
 PW_GRID|   Bounds   2           -144     143                Points:         288
 PW_GRID|   Bounds   3           -144     143                Points:         288
 PW_GRID| Volume element (a.u.^3)  0.6564E-03     Volume (a.u.^3)     15680.1533
 PW_GRID| Grid span                                                    FULLSPACE
 PW_GRID|   Distribution                         Average         Max         Min
 PW_GRID|   G-Vectors                           373248.0      373248      373248
 PW_GRID|   G-Rays                                1296.0        1296        1296
 PW_GRID|   Real Space Points                   373248.0      414720      331776

 PW_GRID| Information for grid number                                          2
 PW_GRID| Number of the reference grid                                         1
 PW_GRID| Grid distributed over                                    64 processors
 PW_GRID| Real space group dimensions                                    64    1
 PW_GRID| the grid is blocked:                                                NO
 PW_GRID| Cutoff [a.u.]                                                    200.0
 PW_GRID| spherical cutoff:                                                   NO
 PW_GRID|   Bounds   1            -80      79                Points:         160
 PW_GRID|   Bounds   2            -80      79                Points:         160
 PW_GRID|   Bounds   3            -80      79                Points:         160
 PW_GRID| Volume element (a.u.^3)  0.3828E-02     Volume (a.u.^3)     15680.1533
 PW_GRID| Grid span                                                    FULLSPACE
 PW_GRID|   Distribution                         Average         Max         Min
 PW_GRID|   G-Vectors                            64000.0       64320       63840
 PW_GRID|   G-Rays                                 400.0         402         399
 PW_GRID|   Real Space Points                    64000.0       76800       51200

 PW_GRID| Information for grid number                                          3
 PW_GRID| Number of the reference grid                                         1
 PW_GRID| Grid distributed over                                    64 processors
 PW_GRID| Real space group dimensions                                    64    1
 PW_GRID| the grid is blocked:                                                NO
 PW_GRID| Cutoff [a.u.]                                                     66.7
 PW_GRID| spherical cutoff:                                                   NO
 PW_GRID|   Bounds   1            -48      47                Points:          96
 PW_GRID|   Bounds   2            -48      47                Points:          96
 PW_GRID|   Bounds   3            -48      47                Points:          96
 PW_GRID| Volume element (a.u.^3)  0.1772E-01     Volume (a.u.^3)     15680.1533
 PW_GRID| Grid span                                                    FULLSPACE
 PW_GRID|   Distribution                         Average         Max         Min
 PW_GRID|   G-Vectors                            13824.0       14016       13728
 PW_GRID|   G-Rays                                 144.0         146         143
 PW_GRID|   Real Space Points                    13824.0       18432        9216

 PW_GRID| Information for grid number                                          4
 PW_GRID| Number of the reference grid                                         1
 PW_GRID| Grid distributed over                                    64 processors
 PW_GRID| Real space group dimensions                                    64    1
 PW_GRID| the grid is blocked:                                                NO
 PW_GRID| Cutoff [a.u.]                                                     22.2
 PW_GRID| spherical cutoff:                                                   NO
 PW_GRID|   Bounds   1            -27      26                Points:          54
 PW_GRID|   Bounds   2            -27      26                Points:          54
 PW_GRID|   Bounds   3            -27      26                Points:          54
 PW_GRID| Volume element (a.u.^3)  0.9958E-01     Volume (a.u.^3)     15680.1533
 PW_GRID| Grid span                                                    FULLSPACE
 PW_GRID|   Distribution                         Average         Max         Min
 PW_GRID|   G-Vectors                             2460.4        2592        2322
 PW_GRID|   G-Rays                                  45.6          48          43
 PW_GRID|   Real Space Points                     2460.4        2916           0

 PW_GRID| Information for grid number                                          5
 PW_GRID| Number of the reference grid                                         1
 PW_GRID| Grid distributed over                                    64 processors
 PW_GRID| Real space group dimensions                                    64    1
 PW_GRID| the grid is blocked:                                                NO
 PW_GRID| Cutoff [a.u.]                                                      7.4
 PW_GRID| spherical cutoff:                                                   NO
 PW_GRID|   Bounds   1            -16      15                Points:          32
 PW_GRID|   Bounds   2            -16      15                Points:          32
 PW_GRID|   Bounds   3            -16      15                Points:          32
 PW_GRID| Volume element (a.u.^3)  0.4785         Volume (a.u.^3)     15680.1533
 PW_GRID| Grid span                                                    FULLSPACE
 PW_GRID|   Distribution                         Average         Max         Min
 PW_GRID|   G-Vectors                              512.0         576         480
 PW_GRID|   G-Rays                                  16.0          18          15
 PW_GRID|   Real Space Points                      512.0        1024           0

 POISSON| Solver                                                        PERIODIC
 POISSON| Periodicity                                                        XYZ

 RS_GRID| Information for grid number                                          1
 RS_GRID|   Bounds   1           -144     143                Points:         288
 RS_GRID|   Bounds   2           -144     143                Points:         288
 RS_GRID|   Bounds   3           -144     143                Points:         288
 RS_GRID| Real space distribution over                                  4 groups
 RS_GRID| Real space distribution along direction                              1
 RS_GRID| Border size                                                         30
 RS_GRID| Real space distribution over                                  4 groups
 RS_GRID| Real space distribution along direction                              2
 RS_GRID| Border size                                                         30
 RS_GRID| Real space distribution over                                  4 groups
 RS_GRID| Real space distribution along direction                              3
 RS_GRID| Border size                                                         30
 RS_GRID|   Distribution                         Average         Max         Min
 RS_GRID|   Planes                                 132.0         132         132
 RS_GRID|   Distribution                         Average         Max         Min
 RS_GRID|   Planes                                 132.0         132         132
 RS_GRID|   Distribution                         Average         Max         Min
 RS_GRID|   Planes                                 132.0         132         132

 RS_GRID| Information for grid number                                          2
 RS_GRID|   Bounds   1            -80      79                Points:         160
 RS_GRID|   Bounds   2            -80      79                Points:         160
 RS_GRID|   Bounds   3            -80      79                Points:         160
 RS_GRID| Real space distribution over                                  4 groups
 RS_GRID| Real space distribution along direction                              1
 RS_GRID| Border size                                                         29
 RS_GRID| Real space distribution over                                  4 groups
 RS_GRID| Real space distribution along direction                              2
 RS_GRID| Border size                                                         29
 RS_GRID| Real space distribution over                                  4 groups
 RS_GRID| Real space distribution along direction                              3
 RS_GRID| Border size                                                         29
 RS_GRID|   Distribution                         Average         Max         Min
 RS_GRID|   Planes                                  98.0          98          98
 RS_GRID|   Distribution                         Average         Max         Min
 RS_GRID|   Planes                                  98.0          98          98
 RS_GRID|   Distribution                         Average         Max         Min
 RS_GRID|   Planes                                  98.0          98          98

 RS_GRID| Information for grid number                                          3
 RS_GRID|   Bounds   1            -48      47                Points:          96
 RS_GRID|   Bounds   2            -48      47                Points:          96
 RS_GRID|   Bounds   3            -48      47                Points:          96
 RS_GRID| Real space fully replicated
 RS_GRID| Group size                                                           1

 RS_GRID| Information for grid number                                          4
 RS_GRID|   Bounds   1            -27      26                Points:          54
 RS_GRID|   Bounds   2            -27      26                Points:          54
 RS_GRID|   Bounds   3            -27      26                Points:          54
 RS_GRID| Real space fully replicated
 RS_GRID| Group size                                                           1

 RS_GRID| Information for grid number                                          5
 RS_GRID|   Bounds   1            -16      15                Points:          32
 RS_GRID|   Bounds   2            -16      15                Points:          32
 RS_GRID|   Bounds   3            -16      15                Points:          32
 RS_GRID| Real space fully replicated
 RS_GRID| Group size                                                           1

 MD_PAR| Molecular dynamics protocol (MD input parameters)
 MD_PAR| Ensemble type                                                     NPT_I
 MD_PAR| Number of time steps                                             200000
 MD_PAR| Time step [fs]                                                 0.500000
 MD_PAR| Temperature [K]                                              370.000000
 MD_PAR| Temperature tolerance [K]                                      0.000000
 MD_PAR| Pressure [bar]                                               200.000000
 MD_PAR| Barostat time constant [fs]                                  500.000000
 MD_PAR| Print MD information every                                    1 step(s)
 MD_PAR| File type   Print frequency [steps]                          File names
 MD_PAR| Coordinates          1                       NH3H2O_T370_P200-pos-1.xyz
 MD_PAR| Cell                 1                          NH3H2O_T370_P200-1.cell
 MD_PAR| Velocities           1                       NH3H2O_T370_P200-vel-1.xyz
 MD_PAR| Energies             1                          NH3H2O_T370_P200-1.ener
 MD_PAR| Dump                 1                       NH3H2O_T370_P200-1.restart

 ROT| Rotational analysis information
 ROT| Principal axes and moments of inertia [a.u.]
 ROT|                           1                   2                   3
 ROT| Eigenvalues      1.47358841360E+08   1.51079310237E+08   1.67863652946E+08
 ROT|      x              0.541665988756     -0.395227046414      0.741885124806
 ROT|      y              0.745113384862     -0.182788237583     -0.641400423994
 ROT|      z              0.389106669596      0.900213331375      0.195478790899
 ROT| Number of rotovibrational vectors                                        6

 DOF| Calculation of degrees of freedom
 DOF| Number of atoms                                                        192
 DOF| Number of intramolecular constraints                                     0
 DOF| Number of intermolecular constraints                                     0
 DOF| Invariants (translations + rotations)                                    3
 DOF| Degrees of freedom                                                     573

 DOF| Restraints information
 DOF| Number of intramolecular restraints                                      0
 DOF| Number of intermolecular restraints                                      0

 THERMOSTAT| Thermostat information for PARTICLES
 THERMOSTAT| Type of thermostat                               Nose-Hoover-Chains
 THERMOSTAT| Nose-Hoover-Chain length                                          3
 THERMOSTAT| Nose-Hoover-Chain time constant [fs]                      50.000000
 THERMOSTAT| Order of Yoshida integrator                                       3
 THERMOSTAT| Number of multiple time steps                                     2
 THERMOSTAT| Initial potential energy                         0.000000000000E+00
 THERMOSTAT| Initial kinetic energy                           0.585860838508E-03
 THERMOSTAT| End of thermostat information for PARTICLES

 THERMOSTAT| Thermostat information for BAROSTAT
 THERMOSTAT| Type of thermostat                               Nose-Hoover-Chains
 THERMOSTAT| Nose-Hoover-Chain length                                          3
 THERMOSTAT| Nose-Hoover-Chain time constant [fs]                      50.000000
 THERMOSTAT| Order of Yoshida integrator                                       3
 THERMOSTAT| Number of multiple time steps                                     2
 THERMOSTAT| Initial potential energy                         0.000000000000E+00
 THERMOSTAT| Initial kinetic energy                           0.585860838508E-03
 THERMOSTAT| End of thermostat information for BAROSTAT

 MD_VEL| Velocities initialization
 MD_VEL| Initial temperature [K]                                      370.000000
 MD_VEL| COM velocity            -0.0000000000     0.0000000000    -0.0000000000

 Number of electrons:                                                        384
 Number of occupied orbitals:                                                192
 Number of molecular orbitals:                                               192

 Number of orbital functions:                                               3408
 Number of independent orbital functions:                                   3408

 Extrapolation method: initial_guess

 Atomic guess: The first density matrix is obtained in terms of atomic orbitals
               and electronic configurations assigned to each atomic kind

 Guess for atomic kind: H

 Electronic structure
    Total number of core electrons                                          0.00
    Total number of valence electrons                                       1.00
    Total number of electrons                                               1.00
    Multiplicity                                                   not specified
    S      1.00
 

 *******************************************************************************
                  Iteration          Convergence                     Energy [au]
 *******************************************************************************
                          1        0.364523E-02                  -0.422484552894
                          2        0.146100E-03                  -0.422490428339
                          3        0.266755E-04                  -0.422490479552
                          4        0.362963E-08                  -0.422490480151

 Energy components [Hartree]           Total Energy ::           -0.422490480151
                                        Band Energy ::           -0.192735382399
                                     Kinetic Energy ::            0.477952443150
                                   Potential Energy ::           -0.900442923301
                                      Virial (-V/T) ::            1.883959243657
                                        Core Energy ::           -0.479166165564
                                          XC Energy ::           -0.248560767922
                                     Coulomb Energy ::            0.305236453335
                       Total Pseudopotential Energy ::           -0.975131099266
                       Local Pseudopotential Energy ::           -0.975131099266
                    Nonlocal Pseudopotential Energy ::            0.000000000000
                                        Confinement ::            0.180124905515

 Orbital energies  State     L     Occupation   Energy[a.u.]          Energy[eV]

                       1     0          1.000      -0.192735           -5.244596
 

 Total Electron Density at R=0:                                         0.249202

 Guess for atomic kind: N

 Electronic structure
    Total number of core electrons                                          2.00
    Total number of valence electrons                                       5.00
    Total number of electrons                                               7.00
    Multiplicity                                                   not specified
    S   [  2.00] 2.00
    P      3.00
 

 *******************************************************************************
                  Iteration          Convergence                     Energy [au]
 *******************************************************************************
                          1        0.346146                      -9.510631062500
                          2        0.293961                      -9.519323455323
                          3        0.462882E-02                  -9.543943513869
                          4        0.376937E-03                  -9.543951813501
                          5        0.269242E-05                  -9.543951850513
                          6        0.125879E-05                  -9.543951850515
                          7        0.339215E-08                  -9.543951850515

 Energy components [Hartree]           Total Energy ::           -9.543951850515
                                        Band Energy ::           -2.045283633804
                                     Kinetic Energy ::            6.768365847206
                                   Potential Energy ::          -16.312317697722
                                      Virial (-V/T) ::            2.410082147739
                                        Core Energy ::          -15.546390533956
                                          XC Energy ::           -2.165368601043
                                     Coulomb Energy ::            8.167807284485
                       Total Pseudopotential Energy ::          -22.351838927561
                       Local Pseudopotential Energy ::          -23.300988106221
                    Nonlocal Pseudopotential Energy ::            0.949149178660
                                        Confinement ::            0.370825463984

 Orbital energies  State     L     Occupation   Energy[a.u.]          Energy[eV]

                       1     0          2.000      -0.656585          -17.866573
 
                       1     1          3.000      -0.244038           -6.640617
 

 Total Electron Density at R=0:                                         0.000014
 Re-scaling the density matrix to get the right number of electrons
                  # Electrons              Trace(P)               Scaling factor
                          384               384.000                        1.000


 SCF WAVEFUNCTION OPTIMIZATION

  ----------------------------------- OT ---------------------------------------
  Minimizer      : CG                  : conjugate gradient
  Preconditioner : FULL_SINGLE_INVERSE : inversion of 
                                         H + eS - 2*(Sc)(c^T*H*c+const)(Sc)^T
  Precond_solver : DEFAULT
  Line search    : 2PNT                : 2 energies, one gradient
  stepsize       :    0.08000000                  energy_gap     :    0.08000000
  eps_taylor     :   0.10000E-15                  max_taylor     :             4
  ----------------------------------- OT ---------------------------------------

  Step     Update method      Time    Convergence         Total energy    Change
  ------------------------------------------------------------------------------
     1 OT CG       0.80E-01    2.4     0.02188745      -521.9984981139 -5.22E+02
     2 OT LS       0.19E+00    1.9                     -541.6949846905
     3 OT CG       0.19E+00    3.5     0.01649540      -548.1961945256 -2.62E+01
     4 OT LS       0.94E-01    1.9                     -548.5580146538
     5 OT CG       0.94E-01    3.5     0.01206695      -555.3095640966 -7.11E+00
     6 OT LS       0.11E+00    1.9                     -560.4760147074
     7 OT CG       0.11E+00    3.5     0.00613640      -560.5258469765 -5.22E+00
     8 OT LS       0.10E+00    1.9                     -561.7142101046
[...]
    180       N      2       5.000          6.519                        -1.519
    181       N      2       5.000          6.551                        -1.551
    182       N      2       5.000          6.531                        -1.531
    183       N      2       5.000          6.542                        -1.542
    184       N      2       5.000          6.540                        -1.540
    185       N      2       5.000          6.539                        -1.539
    186       N      2       5.000          6.538                        -1.538
    187       N      2       5.000          6.554                        -1.554
    188       N      2       5.000          6.533                        -1.533
    189       N      2       5.000          6.557                        -1.557
    190       N      2       5.000          6.564                        -1.564
    191       N      2       5.000          6.499                        -1.499
    192       N      2       5.000          6.525                        -1.525

  Total Charge                                                            0.006
 !-----------------------------------------------------------------------------!

 ENERGY| Total FORCE_EVAL ( QS ) energy [hartree]           -563.239348311509275

 FORCES| Atomic forces [hartree/bohr]
 FORCES|   Atom     x               y               z               |f|
 FORCES|      1  9.51670070E-03 -3.72181307E-03  6.60451398E-03   1.21671315E-02
 FORCES|      2  5.23163745E-03 -1.58036924E-02 -2.27677881E-02   2.82045900E-02
 FORCES|      3  7.42550352E-03  3.54659275E-03  1.60434307E-03   8.38393340E-03
 FORCES|      4  6.17831703E-03  1.33973253E-02 -3.44174754E-03   1.51494407E-02
 FORCES|      5  7.02520743E-04  1.43729806E-03 -2.64733135E-03   3.09317384E-03
 FORCES|      6  4.52207198E-02  3.56395652E-03  2.56048284E-02   5.20886026E-02
 FORCES|      7 -8.37171254E-03  1.14252968E-03 -8.48690257E-03   1.19757447E-02
 FORCES|      8 -3.44662897E-02 -2.08694581E-02  5.16959006E-04   4.02954917E-02
 FORCES|      9 -1.05055336E-02  7.33720938E-03  7.04412261E-03   1.46226038E-02
 FORCES|     10  2.09716981E-02 -2.07811175E-02  1.00220038E-02   3.11786389E-02
 FORCES|     11  9.07184624E-03  3.52304218E-02  7.46230885E-03   3.71371387E-02
 FORCES|     12  2.79720773E-02 -5.25692002E-05 -2.03003320E-02   3.45621665E-02
 FORCES|     13 -1.28435255E-02 -9.15251643E-03  1.62449964E-03   1.58544538E-02
 FORCES|     14  1.33785466E-02 -2.57344294E-02 -1.18257295E-02   3.13224240E-02
 FORCES|     15 -6.47414317E-03  5.40212553E-03  1.32443318E-02   1.57006310E-02
 FORCES|     16  8.43303152E-03 -4.89159146E-03  1.50461148E-02   1.79284483E-02
 FORCES|     17 -9.52645865E-03 -5.76022087E-03  1.79801377E-02   2.11475509E-02
 FORCES|     18  2.73489240E-03 -3.60780779E-03 -1.83080669E-03   4.88341752E-03
 FORCES|     19 -4.99972045E-03  8.64240698E-04  2.26533753E-02   2.32146404E-02
 FORCES|     20  5.74698248E-03  5.36557903E-03  3.27017786E-03   8.51535726E-03
 FORCES|     21  4.01099532E-03 -7.57269878E-03  1.98375656E-02   2.16093234E-02
 FORCES|     22  7.47448002E-03 -6.45572071E-03 -8.65906850E-03   1.31348258E-02
 FORCES|     23 -5.92537316E-03  1.00655889E-02  3.50259470E-03   1.21940271E-02
 FORCES|     24 -1.58720196E-02 -1.88740919E-02 -1.72734116E-02   3.01085221E-02
 FORCES|     25 -4.33740541E-03 -1.70988107E-03  1.45201619E-02   1.52503076E-02
 FORCES|     26 -2.34681699E-03  7.51254277E-03  1.79829795E-03   8.07339609E-03
 FORCES|     27 -4.47549402E-03 -1.09221907E-03  1.16546262E-02   1.25320908E-02
 FORCES|     28  9.19405868E-04 -7.42116196E-03 -1.98935611E-02   2.12525934E-02
 FORCES|     29 -1.93993453E-02  1.05575776E-02 -5.54447806E-04   2.20930861E-02
 FORCES|     30 -9.77600315E-03  6.17978829E-03  6.38955090E-03   1.32131140E-02
 FORCES|     31  1.18173379E-02 -7.81981628E-03 -1.59380383E-02   2.13265109E-02
 FORCES|     32 -1.18044304E-02  5.05441798E-02 -2.12068695E-02   5.60695105E-02
 FORCES|     33 -9.46362821E-03  6.23866782E-03  1.76803036E-02   2.10017706E-02
 FORCES|     34  1.72188862E-02  7.92636857E-03  4.84594466E-03   1.95652891E-02
 FORCES|     35 -4.15629391E-03 -8.47130814E-03  7.83708649E-03   1.22661227E-02
 FORCES|     36 -8.19305641E-03 -1.82719145E-02 -7.47241805E-03   2.13734897E-02
 FORCES|     37 -4.04142017E-03 -8.75628461E-03  1.86243166E-02   2.09730962E-02
 FORCES|     38  7.49651115E-03  4.82149814E-03 -1.25238649E-02   1.53717831E-02
 FORCES|     39  9.99381878E-03  1.58728971E-03 -1.98792231E-02   2.23064881E-02
 FORCES|     40  1.59800445E-02  1.77861680E-02  6.06459037E-03   2.46675668E-02
 FORCES|     41 -2.24494163E-02 -9.85750743E-03  2.57445119E-02   3.55517459E-02
 FORCES|     42  2.15568732E-02 -6.07289403E-03  4.02650808E-02   4.60744567E-02
 FORCES|     43  5.23632036E-03  8.08605241E-03  8.74575501E-03   1.30112077E-02
 FORCES|     44  6.05437193E-03  1.45254972E-02 -1.16461568E-02   1.95774987E-02
 FORCES|     45 -1.27855788E-02  2.56660691E-02 -2.78213726E-03   2.88089989E-02
 FORCES|     46  5.62725738E-03 -1.03990803E-02  1.80868353E-02   2.16088063E-02
 FORCES|     47  2.34334076E-03 -5.98096273E-03 -9.09481099E-03   1.11345744E-02
 FORCES|     48 -1.69859393E-04  1.78534352E-03  1.24735996E-03   2.18453899E-03
 FORCES|     49  3.11088867E-03 -6.46380805E-03 -3.81259444E-03   8.12368877E-03
 FORCES|     50  5.26743539E-03 -9.75659574E-03  7.74885013E-03   1.35270734E-02
 FORCES|     51 -5.29121043E-03 -9.40635279E-03  1.35319814E-02   1.73086944E-02
 FORCES|     52 -5.57076050E-03  1.22402975E-02  1.33876509E-02   1.89759704E-02
 FORCES|     53  3.80608546E-02 -4.57295041E-04 -3.81163467E-03   3.82539714E-02
 FORCES|     54  2.71445259E-02 -1.08936954E-02  4.70766480E-03   2.96253269E-02
 FORCES|     55 -2.29727607E-02  2.27542588E-02 -1.42295683E-02   3.53268261E-02
 FORCES|     56  9.58058609E-03 -8.15241366E-03 -2.38872340E-03   1.28045101E-02
 FORCES|     57  1.86450637E-03 -4.09469371E-03  9.80535749E-03   1.07883241E-02
 FORCES|     58  1.92475931E-02 -1.16466047E-02  6.61576859E-03   2.34495551E-02
 FORCES|     59 -1.11898304E-02  1.17692580E-02 -1.04982385E-02   1.93375476E-02
 FORCES|     60 -9.11257737E-03  3.37660289E-03  3.14386679E-03   1.02139322E-02
 FORCES|     61 -2.81333907E-03  1.71701614E-02  7.01821331E-03   1.87612536E-02
 FORCES|     62  5.27269819E-03  4.88049426E-03 -3.41000747E-03   7.95290648E-03
 FORCES|     63  2.41254604E-03  5.61007275E-03 -9.16863394E-03   1.10162218E-02
 FORCES|     64  1.50268658E-02 -1.22145983E-02  2.73061778E-03   1.95565688E-02
 FORCES|     65  3.79167619E-03 -1.73404165E-02 -3.52887839E-02   3.95014572E-02
 FORCES|     66 -4.92751909E-02 -1.57426499E-02 -2.94601749E-03   5.18126865E-02
 FORCES|     67 -9.57737662E-03 -1.10072852E-02 -3.44618191E-03   1.49920859E-02
 FORCES|     68 -4.34412115E-03  9.50314353E-03 -2.63444555E-03   1.07759653E-02
 FORCES|     69  3.91430456E-03 -3.90211608E-03 -1.16354808E-04   5.52827537E-03
 FORCES|     70 -3.33196409E-03  7.55291654E-03 -9.81790425E-03   1.28273059E-02
 FORCES|     71 -2.54847139E-03 -2.49922754E-02  2.40094357E-02   3.47499862E-02
 FORCES|     72 -1.78321079E-02  1.18971414E-02  2.55309733E-02   3.33370161E-02
 FORCES|     73 -1.35077221E-02  8.12072700E-03 -1.85279310E-03   1.58693921E-02
 FORCES|     74 -7.79842142E-03 -6.48307585E-03 -1.19998773E-02   1.57112286E-02
 FORCES|     75 -1.72239573E-03 -2.06697341E-04  5.29879210E-03   5.57553303E-03
 FORCES|     76 -1.38391783E-02  2.19081718E-02  5.08226090E-03   2.64068216E-02
 FORCES|     77  1.94195098E-02  2.93025579E-03 -1.30818220E-03   1.96828631E-02
 FORCES|     78 -2.76086166E-02 -2.36946817E-02 -6.76653306E-03   3.70062105E-02
 FORCES|     79  1.17626070E-02  4.19096787E-03  4.01818880E-02   4.20773960E-02
 FORCES|     80 -2.50267984E-02  4.62234794E-03  1.14365891E-02   2.79016542E-02
 FORCES|     81  2.76842592E-02  2.81145256E-03 -8.25726213E-03   2.90259342E-02
 FORCES|     82 -6.97774058E-03 -2.59527160E-02  2.09043200E-02   3.40473630E-02
 FORCES|     83 -1.41059462E-03 -1.53912685E-03 -4.77949255E-03   5.21557645E-03
 FORCES|     84  1.17841788E-02 -2.49268563E-03  6.56102568E-03   1.37159546E-02
 FORCES|     85 -2.28560058E-02  2.12723768E-02 -1.89058628E-02   3.65012694E-02
 FORCES|     86  2.11491132E-02 -4.18922145E-02 -9.29974670E-03   4.78406513E-02
 FORCES|     87  1.16770545E-04  7.06746159E-04  9.93177882E-03   9.95757782E-03
 FORCES|     88 -1.18006590E-02 -1.94795970E-02  2.21375046E-02   3.17612871E-02
 FORCES|     89  1.37371094E-02  1.96904314E-02  2.09736108E-03   2.41002114E-02
 FORCES|     90  7.21885375E-03  2.86946858E-03 -4.83542268E-03   9.15024655E-03
 FORCES|     91 -9.69500339E-03  4.55970492E-03  8.17833062E-03   1.34784677E-02
 FORCES|     92  1.56326177E-02 -7.82752485E-07 -8.00138943E-03   1.75613487E-02
 FORCES|     93  1.08587890E-02 -3.09272188E-02  6.64259349E-03   3.34444346E-02
 FORCES|     94  1.59738365E-02 -7.03501481E-03  1.67592135E-02   2.41976470E-02
 FORCES|     95  1.46303512E-02  3.37390941E-02 -2.96901651E-03   3.68942909E-02
 FORCES|     96 -5.85564534E-03  1.33147882E-03  2.14822096E-03   6.37779519E-03
 FORCES|     97  6.73524454E-03 -5.23114574E-03 -1.46539321E-03   8.65307933E-03
 FORCES|     98  1.26587828E-02  6.13521429E-03  1.32125238E-02   1.92991301E-02
 FORCES|     99  2.80752048E-03  7.33695332E-04 -4.84463193E-03   5.64720626E-03
 FORCES|    100  8.98249822E-03  4.29430249E-03 -1.02290283E-02   1.42744292E-02
 FORCES|    101  2.92733074E-03  1.14411591E-02  5.08968102E-04   1.18206783E-02
 FORCES|    102 -4.94401620E-03  1.72959380E-02 -1.31358377E-02   2.22742677E-02
 FORCES|    103  4.77436253E-03  7.00444577E-04 -7.48718952E-03   8.90747815E-03
 FORCES|    104  8.94278769E-03 -3.52688010E-03  3.51946398E-03   1.02371364E-02
 FORCES|    105  2.98444196E-02  3.16156128E-02  2.07194408E-02   4.81615155E-02
 FORCES|    106 -8.70839479E-03 -2.15205885E-02 -1.53964882E-03   2.32667658E-02
 FORCES|    107  2.93606598E-02 -2.53568145E-02 -2.65363826E-02   4.70020849E-02
 FORCES|    108  1.52536264E-03 -7.62740181E-04  7.69422682E-03   7.88096632E-03
 FORCES|    109 -1.06225485E-02 -1.40417895E-02 -6.07274164E-03   1.86249451E-02
 FORCES|    110  1.85352406E-02  1.11178353E-02  1.14384781E-02   2.44540424E-02
 FORCES|    111  3.62388172E-02 -1.02167900E-02 -2.58651489E-02   4.56797613E-02
 FORCES|    112 -4.44564808E-03  5.29830191E-03 -2.51112378E-03   7.35809300E-03
 FORCES|    113 -1.52726149E-02  2.14616137E-02 -1.01442992E-02   2.82269452E-02
 FORCES|    114  1.63510956E-02  7.19026169E-03  4.74789293E-03   1.84824425E-02
 FORCES|    115  1.66138916E-02  6.38731945E-05 -6.00169675E-03   1.76648192E-02
 FORCES|    116 -1.73003208E-02 -5.93523268E-03  8.05052191E-04   1.83078179E-02
 FORCES|    117 -1.13282703E-02  1.49999777E-02 -2.12689808E-02   2.83848302E-02
 FORCES|    118 -9.88668030E-04  8.69386932E-03 -2.22565259E-02   2.39147188E-02
 FORCES|    119 -1.22958808E-02 -3.57734458E-03 -1.74091116E-03   1.29234999E-02
 FORCES|    120  1.47255798E-03 -6.68039184E-03 -3.74498929E-03   7.79878240E-03
 FORCES|    121  6.10001408E-03 -1.19337410E-02 -1.84660022E-03   1.35290162E-02
 FORCES|    122 -1.26535193E-02 -1.31111203E-03  1.38588116E-02   1.88121563E-02
 FORCES|    123  2.07299450E-03  1.13183438E-02 -9.44456033E-04   1.15453111E-02
 FORCES|    124  7.31933450E-03 -1.30656802E-02  5.96420338E-03   1.61200613E-02
 FORCES|    125  5.85186625E-03 -5.81693824E-03  8.11542552E-03   1.15732986E-02
 FORCES|    126 -2.16433045E-03  8.80128114E-03  2.75696900E-03   9.47352913E-03
 FORCES|    127  3.64436398E-03  4.63815196E-03  2.64233968E-02   2.70737833E-02
 FORCES|    128  5.21057692E-03 -3.03864440E-02  2.26187887E-02   3.82373600E-02
 FORCES|    129 -1.40967605E-02  2.15714432E-02 -8.32625384E-03   2.70808479E-02
 FORCES|    130 -2.53052487E-02  3.54643199E-03 -3.32124597E-02   4.19046569E-02
 FORCES|    131  4.55954069E-03  7.28308813E-03  4.60240505E-03   9.74755950E-03
 FORCES|    132 -1.49627818E-03  4.39401646E-03  3.87782531E-03   6.04845089E-03
 FORCES|    133 -4.79458480E-03 -5.12287414E-03  6.16335330E-03   9.33910096E-03
 FORCES|    134 -1.66185200E-02 -1.83457754E-02  3.52773914E-02   4.30956729E-02
 FORCES|    135  9.25613384E-03  2.40759030E-03 -2.82652192E-02   2.98394893E-02
 FORCES|    136 -1.38512684E-02 -3.68630367E-03  1.51613906E-02   2.08641854E-02
 FORCES|    137  2.13952528E-03  2.41858590E-03 -7.76694547E-03   8.41145458E-03
 FORCES|    138  2.93394594E-02 -4.54904395E-03 -1.59484806E-02   3.37023993E-02
 FORCES|    139 -4.69043680E-03 -1.77554969E-03  1.02548948E-02   1.14155877E-02
 FORCES|    140 -1.95133702E-02  6.68156421E-03 -1.65894042E-02   2.64692887E-02
 FORCES|    141 -1.64892544E-02  1.21776103E-03 -1.54570107E-02   2.26339928E-02
 FORCES|    142  2.12617867E-02  1.73988983E-02 -4.02747155E-03   2.77669906E-02
 FORCES|    143  4.66166848E-03 -2.23016749E-02 -1.29465663E-02   2.62051414E-02
 FORCES|    144  7.58797222E-03 -3.55123846E-03  1.15783038E-02   1.42914568E-02
 FORCES|    145 -2.39176272E-02  1.54209356E-02  1.34416624E-02   3.14727888E-02
 FORCES|    146 -5.10261009E-02 -1.70259925E-02 -2.09774813E-02   5.77373546E-02
 FORCES|    147  5.13082645E-02  8.00016183E-03 -4.55377400E-05   5.19282454E-02
 FORCES|    148 -5.47941328E-02 -1.50923898E-02  8.05846758E-03   5.74031020E-02
 FORCES|    149  3.02959081E-03  3.37313436E-02 -4.51950484E-03   3.41673512E-02
 FORCES|    150 -3.62842743E-03  9.33606272E-03 -2.65412331E-02   2.83683734E-02
 FORCES|    151 -4.16207069E-03  1.60017208E-03 -4.57522002E-02   4.59689809E-02
 FORCES|    152  1.21351879E-02  1.27743033E-02  2.24168203E-02   2.85124436E-02
 FORCES|    153  7.64769457E-03 -5.82121371E-03 -2.61831842E-02   2.78914485E-02
 FORCES|    154  2.75254093E-02 -9.52709676E-03  1.30325906E-02   3.19102201E-02
 FORCES|    155  1.41438371E-02 -4.28901216E-02  1.93072963E-02   4.91160091E-02
 FORCES|    156 -5.93798230E-03  1.88210438E-02 -3.36442085E-03   2.00202560E-02
 FORCES|    157 -1.08296980E-02  3.07123009E-04  1.14396001E-02   1.57556699E-02
 FORCES|    158 -1.43962455E-02 -6.53993665E-04 -7.17555345E-02   7.31883619E-02
 FORCES|    159  8.87490517E-04 -4.68548666E-02  4.86875992E-03   4.71155069E-02
 FORCES|    160 -5.53908234E-03  1.46762392E-02 -7.83482908E-03   1.75344797E-02
 FORCES|    161  1.19413468E-03  2.41315739E-02 -1.99942079E-02   3.13612367E-02
 FORCES|    162 -5.67688805E-02 -5.69650631E-04 -1.50025403E-02   5.87205799E-02
 FORCES|    163  8.90093832E-03 -1.10271470E-02  6.43042916E-03   1.55619759E-02
 FORCES|    164 -4.86321374E-04 -7.22267056E-03  2.55413578E-03   7.67639812E-03
 FORCES|    165 -2.40653016E-03 -2.83860799E-02  2.85033657E-03   2.86301473E-02
 FORCES|    166  3.52075292E-02  4.15856681E-02  3.29988641E-02   6.37013574E-02
 FORCES|    167  1.15591183E-02 -1.02145290E-03  6.98438963E-03   1.35439389E-02
 FORCES|    168  2.22845502E-02  4.12298080E-03 -3.77141232E-02   4.39994913E-02
 FORCES|    169  2.36671504E-02 -2.06589142E-03  9.05333027E-03   2.54237036E-02
 FORCES|    170  2.29839596E-02 -2.39154304E-04  2.22935768E-03   2.30930645E-02
 FORCES|    171 -2.21625173E-02 -9.79705239E-03 -4.64761629E-02   5.24136731E-02
 FORCES|    172 -2.78474201E-03  2.98404643E-02 -2.28202776E-02   3.76692602E-02
 FORCES|    173  5.62410274E-03  2.02408252E-02  1.61623367E-02   2.65055214E-02
 FORCES|    174 -1.22014771E-02 -2.59463863E-03 -1.94392336E-02   2.30974456E-02
 FORCES|    175 -1.69575824E-02  2.41999924E-02 -8.01012417E-03   3.06163572E-02
 FORCES|    176 -2.34041216E-02 -2.56370177E-02 -1.63189550E-02   3.83577616E-02
 FORCES|    177 -2.01127970E-02 -1.86010017E-03 -7.91159360E-03   2.16928073E-02
 FORCES|    178 -1.03171154E-02 -3.15130393E-02  2.43894865E-02   4.11626235E-02
 FORCES|    179 -4.30118765E-02 -2.67997779E-02 -1.72845952E-02   5.35444381E-02
 FORCES|    180 -2.32193558E-02  5.13146231E-02  1.99702055E-02   5.97590005E-02
 FORCES|    181 -4.80280809E-02  1.25740827E-02  2.23312206E-02   5.44379236E-02
 FORCES|    182  7.15531585E-03 -3.72684672E-02  8.74464735E-03   3.89436266E-02
 FORCES|    183  1.01053537E-02 -6.71241121E-03  3.16433736E-02   3.38891978E-02
 FORCES|    184  1.46821896E-02  1.71031131E-03  2.44997529E-02   2.86134539E-02
 FORCES|    185  5.77703848E-04  5.63263217E-04 -1.19803274E-02   1.20074665E-02
 FORCES|    186 -1.18569131E-02  1.08134514E-02 -1.56233418E-02   2.23965606E-02
 FORCES|    187  7.69114785E-03  4.68370590E-03 -4.10478449E-02   4.20239982E-02
 FORCES|    188  2.47508208E-02 -1.22005994E-02  2.20474708E-02   3.53206558E-02
 FORCES|    189  1.38514515E-02  2.58658531E-02 -1.45790939E-02   3.27636238E-02
 FORCES|    190 -1.85985810E-02  7.18129009E-03  8.78718918E-03   2.17874468E-02
 FORCES|    191  3.60973085E-02 -5.86592239E-03  2.42873392E-02   4.39010202E-02
 FORCES|    192 -3.40560796E-02  1.02612552E-02  6.50488017E-03   3.61583100E-02
 FORCES| Sum     2.36363352E-04  3.05252888E-04 -6.75350860E-04
 FORCES| Total atomic force                                       7.77911141E-04

 STRESS| Analytical stress tensor [bar]
 STRESS|                        x                   y                   z
 STRESS|      x       -9.54198159722E+03   2.52424865306E+03   5.52151050899E+02
 STRESS|      y        2.52424865306E+03  -1.00830052902E+04  -1.11633836795E+01
 STRESS|      z        5.52151050899E+02  -1.11633836795E+01  -8.25341752014E+03
 STRESS| 1/3 Trace                                            -9.29280146917E+03
 STRESS| Determinant                                          -7.38443107730E+11

 STRESS| Eigenvectors and eigenvalues of the analytical stress tensor [bar]
 STRESS|                        1                   2                   3
 STRESS| Eigenvalues  -1.23859189357E+04  -8.36649335036E+03  -7.12599212149E+03
 STRESS|      x          -0.670919850395     -0.197363613409      0.714782595233
 STRESS|      y           0.735846712998     -0.296314134788      0.608874000507
 STRESS|      z           0.091630613417      0.934476076541      0.344032401175

 MD_VEL| Centre of mass motion (COM)
 MD_VEL| VCOM [a.u.]              0.0000000084     0.0000000182    -0.0000000112

 MD| ***************************************************************************
 MD| Step number                                                               2
 MD| Time [fs]                                                          1.000000
 MD| Conserved quantity [hartree]                            -0.562895079117E+03
 MD| ---------------------------------------------------------------------------
 MD|                                          Instantaneous             Averages
 MD| CPU time per MD step [s]                     44.901315           335.095610
 MD| Energy drift per atom [K]           0.412390569473E+00   0.206195284737E+00
 MD| Potential energy [hartree]         -0.563239348312E+03  -0.563240821809E+03
 MD| Kinetic energy [hartree]            0.331236051126E+00   0.332791684914E+00
 MD| Temperature [K]                             365.081841           366.796430
 MD| Pressure [bar]                     -5.148379708658E+03  -4.811534758495E+03
 MD| Barostat temperature [K]            3.979944801955E+02   3.899992867758E+02
 MD| Cell volume [bohr^3]                1.567617068673E+04   1.567717570512E+04
 MD| Cell volume [ang^3]                 2.322968799741E+03   2.323117728099E+03
 MD| ---------------------------------------------------------------------------
 MD| Cell lengths [bohr]          2.50272613E+01  2.50272613E+01  2.50272613E+01
 MD| Cell lengths [ang]           1.32438563E+01  1.32438563E+01  1.32438563E+01
 MD| Average cell lengths [bohr]  2.50277961E+01  2.50277961E+01  2.50277961E+01
 MD| Average cell lengths [ang]   1.32441393E+01  1.32441393E+01  1.32441393E+01
 MD| ***************************************************************************
 MD| Estimated peak process memory after this step [MiB]                    1178
