     192
 i =      501, time =      501.000, E =     -1100.0657147682
  O        11.6539486176        3.9383647140        1.5668052127
  O        14.2664094023        1.6088190559        6.5146477874
  O        11.0848611939       -2.2468477062        5.8795036887
  O        12.9562108054       -2.3624535581        3.1475000018
  O         9.9463814168        4.2188286797        5.5237410291
  O        -0.0356179743        7.1839142893        8.9835314430
  O         6.1186484750       14.3582168087       -0.9523074382
  O         5.6206726723        9.0839704371        6.2285200131
  O         1.2230964399        9.6712659711       10.3529819904
  O         2.9977626189       11.7133157846       14.3439422674
  O        11.7430961686        6.9929926300        4.9421159356
  O         2.9064562970        1.1881447091       10.3258788971
  O         0.8490997916        3.9183018293        5.6542096021
  O        -1.4413430453        7.7554394173        2.9529891685
  O         5.9413611223        2.0499045051        6.0333565741
  O         2.8223957644        6.0700917510        5.6577996201
  O         0.2595756583       15.0603952077       -2.8013967971
  O         3.4238613253       -1.6168480532        6.1096389177
  O         4.7429740332       12.8033586900        8.9341669717
  O         4.2091598862        4.1264487939        2.9792124976
  O         5.8886786403       11.5398588795        5.3953827738
  O         7.3184527687        8.6554609789        2.6139622361
  O         2.9497622867        8.8411556227       12.4944980806
  O         5.7576905014       11.3506614639        1.1646226226
  O        10.7709883651        0.3427129087        9.2797863187
  O         4.4829123232        6.9706225207        8.0493742778
  O         5.1544640055        3.1655466260        9.2466643805
  O         7.5378483906       11.5173093715       10.9356430385
  O         9.3524217961        6.8702469643       -2.3924412131
  O         8.3140821876        2.9880974357        9.5523888782
  O         1.7502414968        6.4237858777        3.3331121127
  O        14.1413778352        1.1937385020        3.0038704143
  O         1.5115347131        4.7108591999       -4.4835095579
  O        11.0774914372        3.5757246206        7.4954237666
  O         4.1749150353        3.6692466674        7.1052195128
  O        10.3390207193        4.1214554514       -2.0768060941
  O         6.4356399843        8.2467692765       12.3581522594
  O         3.6637635956        9.8643592282        9.2817660678
  O        11.5355187809       10.4551346577       -1.2343506864
  O         0.2949630885       -0.4917523733        7.5766077305
  O         5.3564552895        4.6408943257        5.1244546024
  O         5.2947745861        5.4334000167       -2.0471980688
  O         9.1785706327        7.5903125180        4.8371297232
  O         8.2321354811        2.3552487015        4.5108218251
  O         2.5705735849        6.1476470970       10.7423036667
  O         1.2409979001        0.0448202557       -0.2101420569
  O         7.3805398363        5.5399640390        6.3471960979
  O         6.5577339081        8.5843444304        8.8757578397
  O         9.3600866045        1.6727028355        6.8611607671
  O        12.1431495733        6.3184568098       11.5686824522
  O         2.7270059591        5.2226246427       13.6849704158
  O         9.8057243326        0.7837240809       12.3958351649
  O         7.9986833440       13.0598231421        9.0685474637
  O        10.1064977110       10.0321870951        3.0695166215
  O         7.9560361928        0.4849080392        1.7534600467
  O         3.4212013008        2.1129822925        1.0502859610
  O         6.8934792413        5.2933627991        2.2922952641
  O         4.9753650708        7.2521800459       15.8365405996
  O        12.4184389797        8.9310400099       12.8893818487
  O         2.1563595237       -3.6505391275        5.6161241857
  O        10.3910226648        6.8369103661        7.2497904197
  O         8.2218899571        9.8244851762        6.7054591067
  O         9.2495561225        9.9188970609        9.2724691169
  O        -3.5830313643        3.2256514829        1.9426195854
  H        -1.7515358076        3.9305308488        1.7964221433
  H        14.8799014043        1.2859887186        5.7378695025
  H        11.2844352863       -1.3806226984        5.4715651990
  H        12.1032807348       -2.5714107424        3.4783937225
  H        10.6683210142        4.1035943870        6.2174957748
  H         0.4470740066        7.4265113432        9.9338675376
  H         6.9648966622        2.6394206443       -1.2265804954
  H         4.7265022245        8.7299673337        5.9619518860
  H         2.0490777777        9.6745616589        9.8742982812
  H         3.2775484095       10.6878601805       14.1958631815
  H        12.3629844709        6.1615689288        4.7472023940
  H         2.9930321004        1.8127620901       10.9927220453
  H         0.8682210675        2.7945992102        5.9001863200
  H        -2.0452434326        7.1596917883       14.7847403810
  H         6.7234790078        1.8288365484        5.5936726829
  H         3.2678022966        5.2755802999        5.5929184673
  H         0.6148391533       14.1416163905       -2.5942947002
  H         3.2057629452       -0.9016886122        6.6556281561
  H         5.5455708005       -0.1036583548        8.3637436516
  H         3.9713795395        3.4159016589        2.4299605099
  H         6.1423150856       10.7048882058        5.4106888059
  H         7.7069763729        8.0704964663        2.1288352522
  H         2.9935276645        9.2485367965       11.4933601272
  H         6.0930378607       12.0375976096        0.5415930493
  H        11.3066163647        0.5821930641       10.1612533951
  H         4.7519356842        6.4785572063        7.2706396386
  H         6.2778467753        3.1966659804        9.3175382132
  H         7.6539607228       12.3729016814       10.3928642382
  H         8.9127795300        6.5445210775       -1.5239735268
  H         8.2091716318        3.7634229843        8.9043681049
  H         2.6262976144        6.6138601140        3.2270099450
  H        14.9372774132        0.8007059262        2.9036969630
  H         2.7315935014        4.4900439506       -4.3772968224
  H        11.9141953375        4.0801343752        7.6478355943
  H         3.7511082034        2.7372066740        6.9543739544
  H         9.9983404694        4.9736077822       -2.1935504270
  H         6.4916439367        9.0476779557       11.7586822412
  H         3.7255851876        9.8573783258        8.1559053302
  H        11.7580437325        9.3904852135       11.3775356161
  H        -0.5864233218       -0.3918044132        7.7985771239
  H         4.7371220087        5.1419768666        4.4927935399
  H         5.1039825811        4.6088051736       -1.4645283086
  H         9.0814971336        6.5598251517        5.0863818004
  H         8.2071189482        3.1799599250        5.1360862775
  H         1.8916892342        6.2687203835       11.5118087862
  H         0.7133503958       -0.5516938912       -0.7107261417
  H         6.5117073445        5.2612823546        5.8875454214
  H         7.2385594847        7.8662860698        8.5202984361
  H         8.6740595056        2.1117079455        6.4931832603
  H        -1.0660177282        6.1157973884       11.1650279606
  H         2.6287246948        4.5952190497        0.3388460264
  H         9.0961310692        1.0826181733       13.0639888688
  H         8.1550802299       12.1682820040        8.7527647204
  H         9.1699286511        9.9991326101        3.3704381792
  H         7.8770562171       -0.3757087167        2.2455358094
  H         2.9473273535        1.2353298916       13.4061610298
  H         6.6252502740        5.1233364357        1.3085121862
  H         6.0766445597        7.4442873208        3.6264910473
  H        12.8794988109        8.2087952824       12.4182012767
  H         2.5044026065       -3.9297545963        6.3734317120
  H         9.8540709894        6.4675938120        7.9105670965
  H         8.1194511044        9.8984261133        7.6257469282
  H         9.9711489813       10.5784203175        9.3100172316
  H         8.9021760494       14.6209029840        2.2083780747
  H        11.9274728552        3.8055052136        0.7282268405
  H        14.4993535850        0.9564941392        7.1154738217
  H        11.1133039970       -2.6869655553        5.0545051644
  H        12.6387311672       -1.4922754739        2.9695801381
  H        10.3969080619        4.2578238365        4.5872870480
  H        -0.9470543901        7.8101874002        8.7154866925
  H         6.2678283614       13.9465098898       -0.0680526878
  H         6.3308285742        8.4883199095        5.8714971099
  H         0.6965962278       10.3512468844        9.8220284184
  H         2.4983052185       11.7762309880       13.5664171647
  H        12.4528130341        7.4708133314        5.2327249443
  H         2.3944586534       14.1272000704        9.7043103065
  H         0.7839138573        3.6086367655        4.7259852285
  H        10.6004297489        7.5393226543        3.7243521266
  H         5.2481306840        1.3093888088        5.6733648992
  H         2.1700952111        6.0787946654        4.7618847757
  H         0.4549050467       15.4493659293       -3.6727879558
  H         2.7976403811       -1.7600895204        5.4283323998
  H         4.8688728887       12.1460164316        9.5339862017
  H         5.0563582943        3.7428350336        3.1494861256
  H         6.7359475532       12.0765247006        5.5966791478
  H         6.8557482450        8.9472128147       14.2866737357
  H         2.0418536019        8.6529953954       12.4096841362
  H         5.1177333868       10.8403962135        0.5437724225
  H         9.8397658912        0.4331922291        9.2696346967
  H         3.5692879060        6.7502336691        8.0147706364
  H         5.2993626272        2.1394524472        9.5894592637
  H         7.2457713285       12.1009737941       11.6672468657
  H         9.8718686081        7.6416374451       -2.0130079949
  H         9.0190184002        3.2621794847       10.2596625595
  H         1.5733864923        5.5859720245        2.8903705753
  H        14.2810458311        1.9037126603        2.3662518748
  H         1.5872154375        5.5559555391       -4.1039791841
  H        11.0259442499        2.6614257074        7.5695751407
  H         4.5156197772        3.4086969164        8.0673257288
  H        11.2700002016        3.8663726386       -2.3585112137
  H         5.8271393181        7.6350496352       11.7772483228
  H         4.3318166351        9.1917027825        9.2980136217
  H        12.1350484745       10.1993321835       -0.2775581300
  H         0.4975325581       -1.4091045099        7.3872808423
  H         4.7553607009        4.0177691819        5.6178988658
  H         4.5814458033        5.0936039060       -2.5759543202
  H         8.6039487731        8.2434501986        5.3736573632
  H         9.0392097144        2.6195213592        4.0609756707
  H         3.2225141057        6.6632119844       11.3475560401
  H         1.8533146788        0.2610154862       -0.7393315580
  H         8.2018697303        5.1711982547        5.8714042710
  H         5.9432223694        8.6685148788        8.1567038854
  H         8.9373897504        0.8420992875        6.6930222057
  H        12.4670758811        6.0012866537       10.5923277148
  H         3.4631087516        4.8619472913       14.2794366828
  H         9.9050485446       -0.0390578695       12.3124873345
  H         8.5194430347       13.6341113812        8.5781781706
  H        10.3749941864        9.0604437446        2.6674740116
  H         7.3946594981        0.9989982197        2.4846158505
  H         2.8501746317        2.3969927298        0.2775389928
  H         6.1300639184        5.5835707380        2.6040989216
  H         5.0043532531        6.7645099001       14.9034284752
  H        13.1738485756        8.8851352952       13.6361387105
  H         2.8185038960        8.6913081676        5.1515990486
  H        10.0886316623        7.0311602378        6.3569967692
  H         8.9890835046        9.2206102484        6.5346991439
  H         9.6028501088        9.2607711571        8.6273703909
  H         8.1044580886        3.5821794685        2.3110933542
     192
 i =      502, time =      502.000, E =     -1100.0999148859
  O        11.6445557141        3.9377444965        1.5738138678
  O        14.2860679218        1.6111228807        6.5288439490
  O        11.0743824192       -2.2410651284        5.8708077864
  O        12.9574356709       -2.3670053146        3.1685356250
  O         9.9637091490        4.2141352663        5.5378269215
  O        -0.0518698812        7.1907346175        8.9914240666
  O         6.1156971398       14.3557188824       -0.9493223046
  O         5.6245454045        9.0832180562        6.2488673755
  O         1.2285373062        9.6979488893       10.3607748602
  O         2.9934236966       11.7109850591       14.3557884117
  O        11.7554391156        7.0055126420        4.9291552148
  O         2.8950109472        1.1922257803       10.3200546927
  O         0.8574487668        3.8949043777        5.6520729666
  O        -1.4537279182        7.7426685812        2.9467711809
  O         5.9481877505        2.0517548398        6.0413903467
  O         2.8166820381        6.0612348343        5.6556071469
  O         0.2565114242       15.0608965740       -2.7999025837
  O         3.4237237144       -1.6133649054        6.1217886564
  O         4.7382245953       12.7939144546        8.9151478858
  O         4.1909946024        4.1196134603        2.9828174115
  O         5.9027143622       11.5548956503        5.4219923873
  O         7.2944834047        8.6646088700        2.6181220397
  O         2.9594796261        8.8419801213       12.5009902651
  O         5.7419407615       11.3558082319        1.1647444533
  O        10.7730084553        0.3620876001        9.2833762401
  O         4.4936234390        6.9732234018        8.0221751106
  O         5.1461760926        3.1522174364        9.2407070548
  O         7.5303197377       11.5306025768       10.9302694729
  O         9.3489663961        6.8815242985       -2.4102044826
  O         8.3160442508        2.9977294766        9.5398385101
  O         1.7555481930        6.4179375505        3.3261440206
  O        14.1401190777        1.1878332165        3.0249496376
  O         1.4979480525        4.7355548391       -4.4779212286
  O        11.0779978162        3.5748920828        7.4960728970
  O         4.1964863568        3.6583252721        7.1037635321
  O        10.3511029712        4.1185125131       -2.0741971654
  O         6.4392396011        8.2460673148       12.3562551007
  O         3.6755270816        9.8565482617        9.2730715285
  O        11.5427844021       10.4573338322       -1.2254730870
  O         0.3079644399       -0.5117205690        7.5628780877
  O         5.3567314955        4.6450955214        5.1014454647
  O         5.3118239199        5.4343995256       -2.0657060035
  O         9.1744909568        7.5904777150        4.8433829973
  O         8.2275812576        2.3597665538        4.5111732902
  O         2.5632030285        6.1392315207       10.7332188237
  O         1.2423472193        0.0392213357       -0.1867533481
  O         7.3770532283        5.5303494409        6.3552554610
  O         6.5392590142        8.5842367730        8.8722659207
  O         9.3680246849        1.6781442405        6.8718527687
  O        12.1482769968        6.3198224656       11.5634226963
  O         2.7289958009        5.2230245775       13.6901137779
  O         9.8075899544        0.7715735613       12.3953741616
  O         7.9980418987       13.0669563299        9.0749495282
  O        10.1137378758       10.0490902695        3.0572778110
  O         7.9408934521        0.4865728269        1.7438353841
  O         3.4199017172        2.1144674156        1.0452304581
  O         6.8954311950        5.2905632388        2.2923582060
  O         4.9837327512        7.2439628342       15.8332319765
  O        12.4253091246        8.9098418509       12.8813362148
  O         2.1528903012       -3.6499960749        5.6044918523
  O        10.3921390104        6.8406076972        7.2435084687
  O         8.2241712797        9.8226882643        6.7069842799
  O         9.2428911245        9.9170356768        9.2709746521
  O        -3.5711446409        3.2311591964        1.9459887389
  H        -1.7373960499        3.9239119562        1.8125954430
  H        14.8004141003        1.2124588696        5.7270949849
  H        11.2860800204       -1.4018720356        5.4559055138
  H        12.1725452113       -2.5823034948        3.5471152953
  H        10.6883165506        4.1117393450        6.2411024862
  H         0.4746062677        7.3932434751        9.9949484885
  H         7.0275134658        2.6578771514       -1.2361606199
  H         4.7086245109        8.7288647002        5.9985180149
  H         2.0986616622        9.6920370616        9.8281450081
  H         3.3386218003       10.7760801030       14.1874072394
  H        12.2884029252        6.1667146987        4.7041645131
  H         2.9878421657        1.8707248872       11.0275275135
  H         0.8869490829        2.8603800959        5.9138669725
  H        -2.0259789191        7.2301385573       14.7229017495
  H         6.7351069814        1.8341331645        5.5586257101
  H         3.3537379101        5.2609294268        5.5650060454
  H         0.6542550630       14.0693439251       -2.5876820681
  H         3.1598408178       -0.8661535076        6.7137352013
  H         5.5422582538       -0.1104985814        8.3682484854
  H         3.9334166026        3.4080335109        2.4145883260
  H         6.1065039384       10.6264755256        5.3661075514
  H         7.7361849677        7.9847799765        2.1249375234
  H         3.0120885701        9.2253314309       11.5618993206
  H         6.0267082600       12.0572320969        0.5373777661
  H        11.2606079500        0.5328365887       10.1788955701
  H         4.7557515322        6.5720667775        7.2907048131
  H         6.2680234510        3.2073057587        9.3181348902
  H         7.6385554123       12.3639489722       10.3662972024
  H         8.9240646845        6.5966980016       -1.5734793910
  H         8.1881715699        3.7231375475        8.8988575121
  H         2.6518947555        6.6015163063        3.1856236024
  H        15.0123848975        0.8049954152        2.8652131704
  H         2.6407107139        4.5119967626       -4.4153261629
  H        11.8737776534        4.0495759327        7.5881543312
  H         3.7555415957        2.7210600760        6.8845044003
  H        10.0062287310        4.9896006570       -2.2559578062
  H         6.5229350605        9.0745093583       11.7100344958
  H         3.7297758419        9.8336873423        8.2338075611
  H        11.7255640132        9.4436278838       11.3131238834
  H        -0.6350638418       -0.3738807754        7.8291537896
  H         4.6936048467        5.0896428152        4.4875654852
  H         5.0856814667        4.5791335762       -1.4312664596
  H         9.0926219857        6.6284498125        5.0811840486
  H         8.2099451123        3.2325054114        5.1897920798
  H         1.8538716666        6.2664162910       11.5120538384
  H         0.6671823681       -0.5792776125       -0.6464540519
  H         6.6029283035        5.2595067970        5.9215981653
  H         7.2417697762        7.8781251499        8.5677730757
  H         8.6805460799        2.0839814452        6.4007104133
  H        -1.0991003434        6.0855307848       11.1678908622
  H         2.6508148447        4.6518806736        0.3172659560
  H         9.0998425577        1.0599729431       13.0416321689
  H         8.1602596041       12.1014035953        8.8295013765
  H         9.1691609434        9.9774238101        3.3490975716
  H         7.8873135308       -0.3766265759        2.3165348251
  H         3.0179260137        1.3519727649       13.4324463370
  H         6.5475432628        5.1155194830        1.2797586933
  H         6.0342888484        7.4031066900        3.6066490218
  H        12.9087946319        8.2534384080       12.4412728145
  H         2.5069197146       -3.9115662438        6.4586542734
  H         9.8917459466        6.4420584592        7.9088610455
  H         8.1703482539        9.8812407047        7.6404089030
  H         9.9984770295       10.4665853491        9.2979994475
  H         8.9296084682       14.6167667124        2.2104606071
  H        11.9931079380        3.7903196390        0.7331427490
  H        14.4972482876        0.9391495526        7.2297870166
  H        11.1387229642       -2.7033933228        5.0014835758
  H        12.6308950058       -1.5036363994        2.9825622267
  H        10.3534583520        4.2309920282        4.5768548523
  H        -0.9809824023        7.8552779017        8.7099761677
  H         6.2205993265       14.0373687769       -0.1313482416
  H         6.3019641102        8.4350800743        5.9336512856
  H         0.7416935861       10.3408722280        9.7857813354
  H         2.4627023667       11.7605730494       13.6419692333
  H        12.4526067053        7.5095008735        5.2653035228
  H         2.4840837337       14.1483444399        9.7392822754
  H         0.8428957326        3.6663185854        4.7160572639
  H        10.6735195681        7.4784692893        3.8064223244
  H         5.2915043584        1.3317600357        5.6723879458
  H         2.1238198761        6.1424033710        4.8549029910
  H         0.5037624932       15.3880103220       -3.7252519751
  H         2.8287851951       -1.8033814910        5.3497229880
  H         4.8318447133       12.1823816502        9.5212600252
  H         5.1257373346        3.6799594127        3.1997551367
  H         6.6995159036       12.0276279051        5.5987818262
  H         6.8557458483        8.9163231089       14.3281475460
  H         2.0753014033        8.6993128191       12.3852336508
  H         5.0720962202       10.8523269311        0.4719901502
  H         9.8153386030        0.4804862320        9.2405844526
  H         3.5245182495        6.7017494135        8.0645592336
  H         5.2717655022        2.1090140054        9.5663064134
  H         7.2617755045       12.0499102822       11.6287814902
  H         9.8147716502        7.6433113605       -1.9795035846
  H         9.0286661173        3.2695510097       10.3462188721
  H         1.5289867028        5.5947309893        2.8699744532
  H        14.3086367861        1.9005891892        2.3642695430
  H         1.5785882849        5.5660555226       -4.1191492676
  H        10.9773660205        2.6272922584        7.5842024509
  H         4.5580212584        3.4154965184        8.1108576598
  H        11.2795775366        3.9152627840       -2.3481423268
  H         5.8111216005        7.6492967870       11.7526293766
  H         4.3057884810        9.2249608872        9.2695165085
  H        12.0491715319       10.2768488432       -0.2645284957
  H         0.4461432360       -1.4221876153        7.4224475191
  H         4.7995187256        4.0377477495        5.6303092793
  H         4.4850729131        5.1275453233       -2.6671685211
  H         8.6651299388        8.1832172015        5.3318415162
  H         8.9737596261        2.6231206741        4.0587564634
  H         3.1755287697        6.6555687034       11.4040567613
  H         1.8721635966        0.3289695474       -0.7242728766
  H         8.2567795710        5.1791080365        5.8223733587
  H         5.9964584537        8.6653892464        8.1860802849
  H         8.9611473220        0.8552395547        6.6735014778
  H        12.4606533078        6.0325028785       10.5866030269
  H         3.4178803278        4.8436810700       14.2344726279
  H         9.8870819515       -0.0891308171       12.3138316538
  H         8.4567483550       13.6681936956        8.5277188529
  H        10.3865346483        9.0701831913        2.6581397320
  H         7.4310327741        0.9378533108        2.4455232164
  H         2.7861091274        2.4459636499        0.2130744635
  H         6.0883056521        5.5807744537        2.6783612957
  H         4.9271420448        6.7043233959       14.8906447781
  H        13.1910660699        8.8439411312       13.6754021772
  H         2.8584542844        8.6910383372        5.0668182355
  H        10.1117226762        7.0480912194        6.3921451025
  H         8.9633085273        9.2096141848        6.5239808616
  H         9.6170785495        9.3065358429        8.6290740328
  H         8.1139499886        3.5819888382        2.3238961357
     192
 i =      503, time =      503.000, E =     -1100.0122200838
  O        11.6349886167        3.9376704250        1.5832363522
  O        14.3072083113        1.6121729199        6.5423975260
  O        11.0641746133       -2.2356567546        5.8614198638
  O        12.9607908891       -2.3711838966        3.1887731085
  O         9.9808037416        4.2100496584        5.5493798467
  O        -0.0686767812        7.1990051416        9.0007130863
  O         6.1143768234       14.3562491464       -0.9502169316
  O         5.6277352655        9.0816091157        6.2687026243
  O         1.2351494598        9.7249862484       10.3671788576
  O         2.9914274920       11.7069213105       14.3693921717
  O        11.7681418412        7.0155575490        4.9164009423
  O         2.8846869408        1.1953136193       10.3170642557
  O         0.8655884790        3.8693873193        5.6497601441
  O        -1.4667214015        7.7294417504        2.9374953774
  O         5.9535640402        2.0522366626        6.0490512709
  O         2.8104167474        6.0529010521        5.6527481769
  O         0.2545370022       15.0597809094       -2.7983780097
  O         3.4236143279       -1.6094143493        6.1342540491
  O         4.7354583083       12.7859082622        8.8916546742
  O         4.1749629131        4.1117313606        2.9868342250
  O         5.9161672825       11.5708316994        5.4482515513
  O         7.2723723801        8.6727385487        2.6251301207
  O         2.9714407489        8.8435437392       12.5062424562
  O         5.7248669093       11.3601302040        1.1627373663
  O        10.7764159260        0.3813123052        9.2874830125
  O         4.5017935186        6.9772787408        7.9982425928
  O         5.1412444786        3.1363709552        9.2365024530
  O         7.5230536634       11.5437149066       10.9234194242
  O         9.3457244184        6.8930549813       -2.4267475015
  O         8.3179486102        3.0077120370        9.5287047238
  O         1.7590764482        6.4120134171        3.3196018076
  O        14.1391753744        1.1828944532        3.0456601959
  O         1.4871704086        4.7578187169       -4.4723122903
  O        11.0772435353        3.5744517587        7.4969359564
  O         4.2164699536        3.6456311717        7.1027889681
  O        10.3636147125        4.1151238887       -2.0707619353
  O         6.4417680497        8.2457471860       12.3520347853
  O         3.6858321027        9.8504558952        9.2621590881
  O        11.5507137907       10.4580101703       -1.2143924160
  O         0.3207259780       -0.5304632123        7.5495240649
  O         5.3563920735        4.6499774653        5.0773474942
  O         5.3266100603        5.4330334184       -2.0835052936
  O         9.1713511455        7.5891439211        4.8486044925
  O         8.2210550006        2.3656414759        4.5138990760
  O         2.5553490831        6.1321256942       10.7272756988
  O         1.2412509122        0.0327601053       -0.1606695993
  O         7.3772479773        5.5209106882        6.3634787607
  O         6.5243859153        8.5828317127        8.8714303165
  O         9.3765737782        1.6831676362        6.8833204847
  O        12.1547188729        6.3205232240       11.5564282271
  O         2.7299636799        5.2225834059       13.6921523874
  O         9.8089673399        0.7644283854       12.3953452620
  O         7.9967922501       13.0719023399        9.0815074603
  O        10.1206493725       10.0654285495        3.0447124831
  O         7.9250219680        0.4870946994        1.7362710619
  O         3.4188366118        2.1207417531        1.0377728629
  O         6.8974282903        5.2869586862        2.2895735056
  O         4.9934955139        7.2346495633       15.8285556952
  O        12.4341279082        8.8887699686       12.8765239484
  O         2.1468603410       -3.6494422593        5.5944283550
  O        10.3953307079        6.8450494898        7.2384766342
  O         8.2266589808        9.8205205193        6.7069849299
  O         9.2358231844        9.9144940924        9.2692523202
  O        -3.5567152034        3.2337439878        1.9486265939
  H        -1.7158538961        3.9126836902        1.8123892659
  H        14.7064212745        1.1490686849        5.7317193044
  H        11.2881840457       -1.4129624536        5.4462629678
  H        12.2062371006       -2.6179500133        3.6338471029
  H        10.7049294707        4.1156630676        6.2633465875
  H         0.4769076895        7.3661395846       10.0133932529
  H         7.0556162324        2.6430830114       -1.2336164669
  H         4.7102611348        8.7322634831        6.0383461228
  H         2.1390138675        9.7056324228        9.7905515938
  H         3.3976984806       10.8802512329       14.1873132778