 *******************************************************************************
 *                            RESTART INFORMATION                              *
 *******************************************************************************
 *                                                                             *
 *    RESTART FILE NAME: run.restart                                           *
 *                                                                             *
 * RESTARTED QUANTITIES:                                                       *
 *                       CELL                                                  *
 *                       COORDINATES                                           *
 *                       RANDOM NUMBER GENERATOR                               *
 *                       VELOCITIES                                            *
 *                       MD COUNTERS                                           *
 *                       MD AVERAGES                                           *
 *                       PARTICLE THERMOSTAT                                   *
 *                       REAL TIME PROPAGATION                                 *
 *                       PINT BEAD POSITIONS                                   *
 *                       PINT BEAD VELOCITIES                                  *
 *                       PINT NOSE THERMOSTAT                                  *
 *                       PINT GLE THERMOSTAT                                   *
 *                       HELIUM BEAD POSITIONS                                 *
 *                       HELIUM PERMUTATION STATE                              *
 *                       HELIUM FORCES ON SOLUTE                               *
 *                       HELIUM RNG STATE                                      *
 *******************************************************************************

 DBCSR| CPU Multiplication driver                                           XSMM
 DBCSR| Multrec recursion limit                                              512
 DBCSR| Multiplication stack size                                           1000
 DBCSR| Maximum elements for images                                    UNLIMITED
 DBCSR| Multiplicative factor virtual images                                   1
 DBCSR| Use multiplication densification                                       T
 DBCSR| Multiplication size stacks                                             3
 DBCSR| Use memory pool for CPU allocation                                     F
 DBCSR| Number of 3D layers                                               SINGLE
 DBCSR| Use MPI memory allocation                                              F
 DBCSR| Use RMA algorithm                                                      F
 DBCSR| Use Communication thread                                               T
 DBCSR| Communication thread load                                             83
 DBCSR| MPI: My node id                                                        0
 DBCSR| MPI: Number of nodes                                                  32
 DBCSR| OMP: Current number of threads                                         2
 DBCSR| OMP: Max number of threads                                             2
 DBCSR| Split modifier for TAS multiplication algorithm                  1.0E+00


  **** **** ******  **  PROGRAM STARTED AT               2024-05-14 21:45:48.791
 ***** ** ***  *** **   PROGRAM STARTED ON                               anode01
 **    ****   ******    PROGRAM STARTED BY                               minu928
 ***** **    ** ** **   PROGRAM PROCESS ID                               3931451
  **** **  *******  **  PROGRAM STARTED IN /nas_2/minu928/2_MLFF_devs/0_PythonPa
                                           ckages/testcp2k/rerun2

 CP2K| version string:                                       CP2K version 2022.2
 CP2K| source code revision number:                                  git:a95ec40
 CP2K| cp2kflags: omp libint fftw3 libxc elpa parallel mpi3 scalapack cosma xsmm
 CP2K|             spglib sirius libvori libbqb
 CP2K| is freely available from                            https://www.cp2k.org/
 CP2K| Program compiled at                          Fri Dec 16 08:35:20 KST 2022
 CP2K| Program compiled on                                              nanode04
 CP2K| Program compiled for                                                local
 CP2K| Data directory path                      /home/tools/cp2k-2022.2-AMD/data
 CP2K| Input file name                                                   run.inp

 GLOBAL| Force Environment number                                              1
 GLOBAL| Basis set file name                                   BASIS_MOLOPT_SCAN
 GLOBAL| Potential file name                                 GTH_POTENTIALS_SCAN
 GLOBAL| MM Potential file name                                     MM_POTENTIAL
 GLOBAL| Coordinate file name                                      __STD_INPUT__
 GLOBAL| Method name                                                        CP2K
 GLOBAL| Project name                                                      WATER
 GLOBAL| Run type                                                             MD
 GLOBAL| FFT library                                                       FFTW3
 GLOBAL| Diagonalization library                                            ELPA
 GLOBAL| Minimum number of eigenvectors for ELPA usage                        16
 GLOBAL| Orthonormality check for eigenvectors                          DISABLED
 GLOBAL| Matrix multiplication library                                     COSMA
 GLOBAL| All-to-all communication in single precision                          F
 GLOBAL| FFTs using library dependent lengths                                  F
 GLOBAL| Grid backend                                                       AUTO
 GLOBAL| Global print level                                               MEDIUM
 GLOBAL| MPI I/O enabled                                                       T
 GLOBAL| Total number of message passing processes                            32
 GLOBAL| Number of threads for this process                                    2
 GLOBAL| This output is from process                                           0
 GLOBAL| Stack size for threads created by OpenMP (OMP_STACKSIZE)        default
 GLOBAL| CPU model name                          AMD EPYC 7452 32-Core Processor
 GLOBAL| CPUID                                                              1002

 MEMORY| system memory details [Kb]
 MEMORY|                        rank 0           min           max       average
 MEMORY| MemTotal            263724288     263724288     263724288     263724288
 MEMORY| MemFree             253879936     253872924     253882236     253880317
 MEMORY| Buffers                121268        121268        121268        121268
 MEMORY| Cached                1437076       1437076       1437076       1437076
 MEMORY| Slab                  1354544       1354544       1354544       1354544
 MEMORY| SReclaimable           480432        480432        480432        480432
 MEMORY| MemLikelyFree       255918712     255911700     255921012     255919093


 *** Fundamental physical constants (SI units) ***

 *** Literature: B. J. Mohr and B. N. Taylor,
 ***             CODATA recommended values of the fundamental physical
 ***             constants: 2006, Web Version 5.1
 ***             http://physics.nist.gov/constants

 Speed of light in vacuum [m/s]                             2.99792458000000E+08
 Magnetic constant or permeability of vacuum [N/A**2]       1.25663706143592E-06
 Electric constant or permittivity of vacuum [F/m]          8.85418781762039E-12
 Planck constant (h) [J*s]                                  6.62606896000000E-34
 Planck constant (h-bar) [J*s]                              1.05457162825177E-34
 Elementary charge [C]                                      1.60217648700000E-19
 Electron mass [kg]                                         9.10938215000000E-31
 Electron g factor [ ]                                     -2.00231930436220E+00
 Proton mass [kg]                                           1.67262163700000E-27
 Fine-structure constant                                    7.29735253760000E-03
 Rydberg constant [1/m]                                     1.09737315685270E+07
 Avogadro constant [1/mol]                                  6.02214179000000E+23
 Boltzmann constant [J/K]                                   1.38065040000000E-23
 Atomic mass unit [kg]                                      1.66053878200000E-27
 Bohr radius [m]                                            5.29177208590000E-11

 *** Conversion factors ***

 [u] -> [a.u.]                                              1.82288848426455E+03
 [Angstrom] -> [Bohr] = [a.u.]                              1.88972613288564E+00
 [a.u.] = [Bohr] -> [Angstrom]                              5.29177208590000E-01
 [a.u.] -> [s]                                              2.41888432650478E-17
 [a.u.] -> [fs]                                             2.41888432650478E-02
 [a.u.] -> [J]                                              4.35974393937059E-18
 [a.u.] -> [N]                                              8.23872205491840E-08
 [a.u.] -> [K]                                              3.15774647902944E+05
 [a.u.] -> [kJ/mol]                                         2.62549961709828E+03
 [a.u.] -> [kcal/mol]                                       6.27509468713739E+02
 [a.u.] -> [Pa]                                             2.94210107994716E+13
 [a.u.] -> [bar]                                            2.94210107994716E+08
 [a.u.] -> [atm]                                            2.90362800883016E+08
 [a.u.] -> [eV]                                             2.72113838565563E+01
 [a.u.] -> [Hz]                                             6.57968392072181E+15
 [a.u.] -> [1/cm] (wave numbers)                            2.19474631370540E+05
 [a.u./Bohr**2] -> [1/cm]                                   5.14048714338585E+03
 

 CELL_TOP| Volume [angstrom^3]:                                      1918.179266
 CELL_TOP| Vector a [angstrom    12.425     0.000     0.000   |a| =    12.425000
 CELL_TOP| Vector b [angstrom     0.000    12.425     0.000   |b| =    12.425000
 CELL_TOP| Vector c [angstrom     0.000     0.000    12.425   |c| =    12.425000
 CELL_TOP| Angle (b,c), alpha [degree]:                                90.000000
 CELL_TOP| Angle (a,c), beta  [degree]:                                90.000000
 CELL_TOP| Angle (a,b), gamma [degree]:                                90.000000
 CELL_TOP| Numerically orthorhombic:                                         YES

 GENERATE|  Preliminary Number of Bonds generated:                             0
 GENERATE|  Achieved consistency in connectivity generation.

 CELL| Volume [angstrom^3]:                                          1918.179266
 CELL| Vector a [angstrom]:      12.425     0.000     0.000   |a| =    12.425000
 CELL| Vector b [angstrom]:       0.000    12.425     0.000   |b| =    12.425000
 CELL| Vector c [angstrom]:       0.000     0.000    12.425   |c| =    12.425000
 CELL| Angle (b,c), alpha [degree]:                                    90.000000
 CELL| Angle (a,c), beta  [degree]:                                    90.000000
 CELL| Angle (a,b), gamma [degree]:                                    90.000000
 CELL| Numerically orthorhombic:                                             YES

 CELL_REF| Volume [angstrom^3]:                                      1918.179266
 CELL_REF| Vector a [angstrom    12.425     0.000     0.000   |a| =    12.425000
 CELL_REF| Vector b [angstrom     0.000    12.425     0.000   |b| =    12.425000
 CELL_REF| Vector c [angstrom     0.000     0.000    12.425   |c| =    12.425000
 CELL_REF| Angle (b,c), alpha [degree]:                                90.000000
 CELL_REF| Angle (a,c), beta  [degree]:                                90.000000
 CELL_REF| Angle (a,b), gamma [degree]:                                90.000000
 CELL_REF| Numerically orthorhombic:                                         YES

 *******************************************************************************
 *******************************************************************************
 **                                                                           **
 **     #####                         ##              ##                      **
 **    ##   ##            ##          ##              ##                      **
 **   ##     ##                       ##            ######                    **
 **   ##     ##  ##   ##  ##   #####  ##  ##   ####   ##    #####    #####    **
 **   ##     ##  ##   ##  ##  ##      ## ##   ##      ##   ##   ##  ##   ##   **
 **   ##  ## ##  ##   ##  ##  ##      ####     ###    ##   ######   ######    **
 **    ##  ###   ##   ##  ##  ##      ## ##      ##   ##   ##       ##        **
 **     #######   #####   ##   #####  ##  ##  ####    ##    #####   ##        **
 **           ##                                                    ##        **
 **                                                                           **
 **                                                ... make the atoms dance   **
 **                                                                           **
 **            Copyright (C) by CP2K developers group (2000-2022)             **
 **                      J. Chem. Phys. 152, 194103 (2020)                    **
 **                                                                           **
 *******************************************************************************

 DFT| Spin restricted Kohn-Sham (RKS) calculation                            RKS
 DFT| Multiplicity                                                             1
 DFT| Number of spin states                                                    1
 DFT| Charge                                                                   0
 DFT| Self-interaction correction (SIC)                                       NO
 DFT| Cutoffs: density                                              1.000000E-10
 DFT|          gradient                                             1.000000E-10
 DFT|          tau                                                  1.000000E-10
 DFT|          cutoff_smoothing_range                               0.000000E+00
 DFT| XC density smoothing                                                  NONE
 DFT| XC derivatives                                                          PW

 FUNCTIONAL| MGGA_X_R2SCAN:
 FUNCTIONAL| [1] J. W. Furness, A. D. Kaplan, J. Ning, J. P. Perdew, and J. Sun,
 FUNCTIONAL|  J. Phys. Chem. Lett. 11, 8208 (2020), doi: 10.1021/acs.jpclett.0c0
 FUNCTIONAL| 2405                                                               
 FUNCTIONAL| Optional external parameters:                                      
 FUNCTIONAL|  * c1 parameter                                                    
 FUNCTIONAL|  * c2 parameter                                                    
 FUNCTIONAL|  * d parameter                                                     
 FUNCTIONAL|  * k1 parameter                                                    
 FUNCTIONAL|  * eta parameter                                                   
 FUNCTIONAL|  * dp2 parameter                                                   
 FUNCTIONAL| {scale=1.000, spin-unpolarized}                                    
 FUNCTIONAL| MGGA_C_R2SCAN:
 FUNCTIONAL| [1] J. W. Furness, A. D. Kaplan, J. Ning, J. P. Perdew, and J. Sun,
 FUNCTIONAL|  J. Phys. Chem. Lett. 11, 8208 (2020), doi: 10.1021/acs.jpclett.0c0
 FUNCTIONAL| 2405                                                               
 FUNCTIONAL| Optional external parameters:                                      
 FUNCTIONAL|  * Regularization parameter                                        
 FUNCTIONAL| {scale=1.000, spin-unpolarized}                                    


 QS| Method:                                                                 GPW
 QS| Density plane wave grid type                        NON-SPHERICAL FULLSPACE
 QS| Number of grid levels:                                                    4
 QS| Density cutoff [a.u.]:                                                600.0
 QS| Multi grid cutoff [a.u.]: 1) grid level                               600.0
 QS|                           2) grid level                               200.0
 QS|                           3) grid level                                66.7
 QS|                           4) grid level                                22.2
 QS| Grid level progression factor:                                          3.0
 QS| Relative density cutoff [a.u.]:                                        30.0
 QS| Interaction thresholds: eps_pgf_orb:                                1.0E-07
 QS|                         eps_filter_matrix:                          0.0E+00
 QS|                         eps_core_charge:                            1.0E-16
 QS|                         eps_rho_gspace:                             1.0E-14
 QS|                         eps_rho_rspace:                             1.0E-14
 QS|                         eps_gvg_rspace:                             1.0E-07
 QS|                         eps_ppl:                                    1.0E-02
 QS|                         eps_ppnl:                                   1.0E-09


 ATOMIC KIND INFORMATION

  1. Atomic kind: O                                     Number of atoms:      64

     Orbital Basis Set                                  TZV2P-MOLOPT-SCAN-GTH-q6

       Number of orbital shell sets:                                           1
       Number of orbital shells:                                               9
       Number of primitive Cartesian functions:                                5
       Number of Cartesian basis functions:                                   34
       Number of spherical basis functions:                                   29
       Norm type:                                                              2

       Normalised Cartesian orbitals:

                        Set   Shell   Orbital            Exponent    Coefficient

                          1       1    2s               10.257817      -0.419073
                                                         3.644287      -0.215759
                                                         1.402225       0.311285
                                                         0.522057       0.263821
                                                         0.168189       0.045116

                          1       2    3s               10.257817       0.362459
                                                         3.644287       0.180656
                                                         1.402225      -0.203664
                                                         0.522057      -0.159611
                                                         0.168189       0.244682

                          1       3    4s               10.257817      -2.413417
                                                         3.644287      -0.850901
                                                         1.402225       0.170654
                                                         0.522057      -0.131214
                                                         0.168189       0.003984

                          1       4    3px              10.257817      -1.672017
                                                         3.644287      -1.345385
                                                         1.402225      -0.751048
                                                         0.522057      -0.276645
                                                         0.168189      -0.033014
                          1       4    3py              10.257817      -1.672017
                                                         3.644287      -1.345385
                                                         1.402225      -0.751048
                                                         0.522057      -0.276645
                                                         0.168189      -0.033014
                          1       4    3pz              10.257817      -1.672017
                                                         3.644287      -1.345385
                                                         1.402225      -0.751048
                                                         0.522057      -0.276645
                                                         0.168189      -0.033014

                          1       5    4px              10.257817       1.559903
                                                         3.644287       0.989060
                                                         1.402225       0.672543
                                                         0.522057       0.141420
                                                         0.168189      -0.167208
                          1       5    4py              10.257817       1.559903
                                                         3.644287       0.989060
                                                         1.402225       0.672543
                                                         0.522057       0.141420
                                                         0.168189      -0.167208
                          1       5    4pz              10.257817       1.559903
                                                         3.644287       0.989060
                                                         1.402225       0.672543
                                                         0.522057       0.141420
                                                         0.168189      -0.167208

                          1       6    5px              10.257817       5.420840
                                                         3.644287       0.742781
                                                         1.402225       2.786765
                                                         0.522057      -0.733751
                                                         0.168189       0.023040
                          1       6    5py              10.257817       5.420840
                                                         3.644287       0.742781
                                                         1.402225       2.786765
                                                         0.522057      -0.733751
                                                         0.168189       0.023040
                          1       6    5pz              10.257817       5.420840
                                                         3.644287       0.742781
                                                         1.402225       2.786765
                                                         0.522057      -0.733751
                                                         0.168189       0.023040

                          1       7    4dx2             10.257817      -1.249026
                                                         3.644287       1.475740
                                                         1.402225       0.993741
                                                         0.522057       0.395456
                                                         0.168189      -0.006736
                          1       7    4dxy             10.257817      -2.163376
                                                         3.644287       2.556057
                                                         1.402225       1.721210
                                                         0.522057       0.684950
                                                         0.168189      -0.011667
                          1       7    4dxz             10.257817      -2.163376
                                                         3.644287       2.556057
                                                         1.402225       1.721210
                                                         0.522057       0.684950
                                                         0.168189      -0.011667
                          1       7    4dy2             10.257817      -1.249026
                                                         3.644287       1.475740
                                                         1.402225       0.993741
                                                         0.522057       0.395456
                                                         0.168189      -0.006736
                          1       7    4dyz             10.257817      -2.163376
                                                         3.644287       2.556057
                                                         1.402225       1.721210
                                                         0.522057       0.684950
                                                         0.168189      -0.011667
                          1       7    4dz2             10.257817      -1.249026
                                                         3.644287       1.475740
                                                         1.402225       0.993741
                                                         0.522057       0.395456
                                                         0.168189      -0.006736

                          1       8    5dx2             10.257817       3.556458
                                                         3.644287      -4.051969
                                                         1.402225      -2.873894
                                                         0.522057       0.263147
                                                         0.168189       0.020709
                          1       8    5dxy             10.257817       6.159966
                                                         3.644287      -7.018216
                                                         1.402225      -4.977731
                                                         0.522057       0.455784
                                                         0.168189       0.035869
                          1       8    5dxz             10.257817       6.159966
                                                         3.644287      -7.018216
                                                         1.402225      -4.977731
                                                         0.522057       0.455784
                                                         0.168189       0.035869
                          1       8    5dy2             10.257817       3.556458
                                                         3.644287      -4.051969
                                                         1.402225      -2.873894
                                                         0.522057       0.263147
                                                         0.168189       0.020709
                          1       8    5dyz             10.257817       6.159966
                                                         3.644287      -7.018216
                                                         1.402225      -4.977731
                                                         0.522057       0.455784
                                                         0.168189       0.035869
                          1       8    5dz2             10.257817       3.556458
                                                         3.644287      -4.051969
                                                         1.402225      -2.873894
                                                         0.522057       0.263147
                                                         0.168189       0.020709

                          1       9    5fx3             10.257817       0.328905
                                                         3.644287      -0.098771
                                                         1.402225       0.001548
                                                         0.522057       0.341041
                                                         0.168189       0.000015
                          1       9    5fx2y            10.257817       0.735453
                                                         3.644287      -0.220859
                                                         1.402225       0.003461
                                                         0.522057       0.762591
                                                         0.168189       0.000033
                          1       9    5fx2z            10.257817       0.735453
                                                         3.644287      -0.220859
                                                         1.402225       0.003461
                                                         0.522057       0.762591
                                                         0.168189       0.000033
                          1       9    5fxy2            10.257817       0.735453
                                                         3.644287      -0.220859
                                                         1.402225       0.003461
                                                         0.522057       0.762591
                                                         0.168189       0.000033
                          1       9    5fxyz            10.257817       1.273842
                                                         3.644287      -0.382540
                                                         1.402225       0.005995
                                                         0.522057       1.320846
                                                         0.168189       0.000058
                          1       9    5fxz2            10.257817       0.735453
                                                         3.644287      -0.220859
                                                         1.402225       0.003461
                                                         0.522057       0.762591
                                                         0.168189       0.000033
                          1       9    5fy3             10.257817       0.328905
                                                         3.644287      -0.098771
                                                         1.402225       0.001548
                                                         0.522057       0.341041
                                                         0.168189       0.000015
                          1       9    5fy2z            10.257817       0.735453
                                                         3.644287      -0.220859
                                                         1.402225       0.003461
                                                         0.522057       0.762591
                                                         0.168189       0.000033
                          1       9    5fyz2            10.257817       0.735453
                                                         3.644287      -0.220859
                                                         1.402225       0.003461
                                                         0.522057       0.762591
                                                         0.168189       0.000033
                          1       9    5fz3             10.257817       0.328905
                                                         3.644287      -0.098771
                                                         1.402225       0.001548
                                                         0.522057       0.341041
                                                         0.168189       0.000015

       Atomic covalent radius [Angstrom]:                                  0.730

       Atomic van der Waals radius [Angstrom]:                             1.520

     GTH Potential information for                                   GTH-SCAN-q6

       Description:                       Goedecker-Teter-Hutter pseudopotential
                                           Goedecker et al., PRB 54, 1703 (1996)
                                          Hartwigsen et al., PRB 58, 3641 (1998)
                                                      Krack, TCA 114, 145 (2005)

       Gaussian exponent of the core charge distribution:               8.656553
       Electronic configuration (s p d ...):                       2   4   0   0

       Parameters of the local part of the GTH pseudopotential:

                          rloc        C1          C2          C3          C4
                        0.240332  -16.794986    2.452457

       Parameters of the non-local part of the GTH pseudopotential:

                   l      r(l)      h(i,j,l)

                   0    0.221500   18.441562

  2. Atomic kind: H                                     Number of atoms:     128

     Orbital Basis Set                                  TZV2P-MOLOPT-SCAN-GTH-q1

       Number of orbital shell sets:                                           1
       Number of orbital shells:                                               6
       Number of primitive Cartesian functions:                                5
       Number of Cartesian basis functions:                                   15
       Number of spherical basis functions:                                   14
       Norm type:                                                              2

       Normalised Cartesian orbitals:

                        Set   Shell   Orbital            Exponent    Coefficient

                          1       1    2s                9.168765       0.095357
                                                         2.161194       0.125778
                                                         0.619868       0.162183
                                                         0.161316       0.074849
                                                         0.412255       0.090962

                          1       2    3s                9.168765      -0.435739
                                                         2.161194      -0.868971
                                                         0.619868      -0.406683
                                                         0.161316      -0.142964
                                                         0.412255       0.978336

                          1       3    4s                9.168765       0.385896
                                                         2.161194       1.113624
                                                         0.619868       0.043366
                                                         0.161316      -0.067676
                                                         0.412255       0.053421

                          1       4    3px               9.168765      -1.788640
                                                         2.161194       0.906920
                                                         0.619868       0.273605
                                                         0.161316       0.091389
                                                         0.412255       0.008094
                          1       4    3py               9.168765      -1.788640
                                                         2.161194       0.906920
                                                         0.619868       0.273605
                                                         0.161316       0.091389
                                                         0.412255       0.008094
                          1       4    3pz               9.168765      -1.788640
                                                         2.161194       0.906920
                                                         0.619868       0.273605
                                                         0.161316       0.091389
                                                         0.412255       0.008094

                          1       5    4px               9.168765       3.833256
                                                         2.161194      -1.958439
                                                         0.619868      -0.594902
                                                         0.161316       0.094348
                                                         0.412255      -0.017587
                          1       5    4py               9.168765       3.833256
                                                         2.161194      -1.958439
                                                         0.619868      -0.594902
                                                         0.161316       0.094348
                                                         0.412255      -0.017587
                          1       5    4pz               9.168765       3.833256
                                                         2.161194      -1.958439
                                                         0.619868      -0.594902
                                                         0.161316       0.094348
                                                         0.412255      -0.017587

                          1       6    4dx2              9.168765       0.046944
                                                         2.161194       0.005757
                                                         0.619868      -0.000296
                                                         0.161316       0.067696
                                                         0.412255      -0.000784
                          1       6    4dxy              9.168765       0.081310
                                                         2.161194       0.009971
                                                         0.619868      -0.000513
                                                         0.161316       0.117253
                                                         0.412255      -0.001358
                          1       6    4dxz              9.168765       0.081310
                                                         2.161194       0.009971
                                                         0.619868      -0.000513
                                                         0.161316       0.117253
                                                         0.412255      -0.001358
                          1       6    4dy2              9.168765       0.046944
                                                         2.161194       0.005757
                                                         0.619868      -0.000296
                                                         0.161316       0.067696
                                                         0.412255      -0.000784
                          1       6    4dyz              9.168765       0.081310
                                                         2.161194       0.009971
                                                         0.619868      -0.000513
                                                         0.161316       0.117253
                                                         0.412255      -0.001358
                          1       6    4dz2              9.168765       0.046944
                                                         2.161194       0.005757
                                                         0.619868      -0.000296
                                                         0.161316       0.067696
                                                         0.412255      -0.000784

       Atomic covalent radius [Angstrom]:                                  0.320

       Atomic van der Waals radius [Angstrom]:                             1.090

     GTH Potential information for                                   GTH-SCAN-q1

       Description:                       Goedecker-Teter-Hutter pseudopotential
                                           Goedecker et al., PRB 54, 1703 (1996)
                                          Hartwigsen et al., PRB 58, 3641 (1998)
                                                      Krack, TCA 114, 145 (2005)

       Gaussian exponent of the core charge distribution:              12.429143
       Electronic configuration (s p d ...):                       1   0   0   0

       Parameters of the local part of the GTH pseudopotential:

                          rloc        C1          C2          C3          C4
                        0.200569   -4.177243    0.723816


 MOLECULE KIND INFORMATION


 All atoms are their own molecule, skipping detailed information


 TOTAL NUMBERS AND MAXIMUM NUMBERS

  Total number of            - Atomic kinds:                                   2
                             - Atoms:                                        192
                             - Shell sets:                                   192
                             - Shells:                                      1344
                             - Primitive Cartesian functions:                960
                             - Cartesian basis functions:                   4096
                             - Spherical basis functions:                   3648

  Maximum angular momentum of- Orbital basis functions:                        3
                             - Local part of the GTH pseudopotential:          2
                             - Non-local part of the GTH pseudopotential:      0


 MODULE QUICKSTEP:  ATOMIC COORDINATES IN angstrom

 Atom  Kind  Element       X           Y           Z          Z(eff)       Mass
    1   1 O    8      11.662191    3.939645    1.563489       6.0000     15.9994
    2   1 O    8      14.248089    1.606898    6.497958       6.0000     15.9994
    3   1 O    8      11.095603   -2.251698    5.888667       6.0000     15.9994
    4   1 O    8      12.955642   -2.357920    3.126335       6.0000     15.9994
    5   1 O    8       9.929126    4.224092    5.507152       6.0000     15.9994
    6   1 O    8      -0.020069    7.178459    8.976813       6.0000     15.9994
    7   1 O    8       6.123304   14.362123   -0.955520       6.0000     15.9994
    8   1 O    8       5.616520    9.083976    6.207697       6.0000     15.9994
    9   1 O    8       1.217169    9.645205   10.344546       6.0000     15.9994
   10   1 O    8       3.003612   11.712967   14.332656       6.0000     15.9994
   11   1 O    8      11.731071    6.977070    4.954888       6.0000     15.9994
   12   1 O    8       2.917483    1.183087   10.331042       6.0000     15.9994
   13   1 O    8       0.840510    3.938506    5.655820       6.0000     15.9994
   14   1 O    8      -1.429069    7.767625    2.954028       6.0000     15.9994
   15   1 O    8       5.931850    2.046639    6.025344       6.0000     15.9994
   16   1 O    8       2.826461    6.080798    5.658718       6.0000     15.9994
   17   1 O    8       0.262837   15.059314   -2.802070       6.0000     15.9994
   18   1 O    8       3.425308   -1.620943    6.097822       6.0000     15.9994
   19   1 O    8       4.749897   12.813019    8.949815       6.0000     15.9994
   20   1 O    8       4.227405    4.133605    2.975845       6.0000     15.9994
   21   1 O    8       5.874985   11.530095    5.368764       6.0000     15.9994
   22   1 O    8       7.340825    8.649145    2.612995       6.0000     15.9994
   23   1 O    8       2.941349    8.841340   12.485773       6.0000     15.9994
   24   1 O    8       5.772764   11.345107    1.163099       6.0000     15.9994
   25   1 O    8      10.771559    0.323244    9.277033       6.0000     15.9994
   26   1 O    8       4.472525    6.968146    8.076623       6.0000     15.9994
   27   1 O    8       5.166131    3.176369    9.254227       6.0000     15.9994
   28   1 O    8       7.544961   11.505307   10.941352       6.0000     15.9994
   29   1 O    8       9.355840    6.858988   -2.372791       6.0000     15.9994
   30   1 O    8       8.311525    2.979587    9.564960       6.0000     15.9994
   31   1 O    8       1.742359    6.429328    3.340702       6.0000     15.9994
   32   1 O    8      14.140270    1.201363    2.983187       6.0000     15.9994
   33   1 O    8       1.528195    4.684463   -4.488655       6.0000     15.9994
   34   1 O    8      11.077327    3.579095    7.495106       6.0000     15.9994
   35   1 O    8       4.151850    3.678560    7.107232       6.0000     15.9994
   36   1 O    8      10.328074    4.122713   -2.078549       6.0000     15.9994
   37   1 O    8       6.431032    8.247175   12.358560       6.0000     15.9994
   38   1 O    8       3.652126    9.872407    9.287392       6.0000     15.9994
   39   1 O    8      11.529401   10.450528   -1.240837       6.0000     15.9994
   40   1 O    8       0.284280   -0.471738    7.589996       6.0000     15.9994
   41   1 O    8       5.355250    4.637254    5.146390       6.0000     15.9994
   42   1 O    8       5.277545    5.431257   -2.027006       6.0000     15.9994
   43   1 O    8       9.181933    7.589300    4.831584       6.0000     15.9994
   44   1 O    8       8.236218    2.351896    4.511289       6.0000     15.9994
   45   1 O    8       2.577689    6.157233   10.753932       6.0000     15.9994
   46   1 O    8       1.235812    0.049476   -0.229289       6.0000     15.9994
   47   1 O    8       7.384805    5.549419    6.338797       6.0000     15.9994
   48   1 O    8       6.577980    8.583353    8.879389       6.0000     15.9994
   49   1 O    8       9.353822    1.665840    6.851740       6.0000     15.9994
   50   1 O    8      12.140714    6.316637   11.572679       6.0000     15.9994
   51   1 O    8       2.724909    5.220760   13.677589       6.0000     15.9994
   52   1 O    8       9.802740    0.803355   12.397212       6.0000     15.9994
   53   1 O    8       7.998224   13.051355    9.062657       6.0000     15.9994
   54   1 O    8      10.099092   10.014931    3.081464       6.0000     15.9994
   55   1 O    8       7.969604    0.483745    1.765498       6.0000     15.9994
   56   1 O    8       3.421159    2.110940    1.053914       6.0000     15.9994
   57   1 O    8       6.894392    5.294480    2.288987       6.0000     15.9994
   58   1 O    8       4.969262    7.259675   15.838907       6.0000     15.9994
   59   1 O    8      12.413993    8.951157   12.899503       6.0000     15.9994
   60   1 O    8       2.152279   -3.649630    5.629386       6.0000     15.9994
   61   1 O    8      10.391394    6.834106    7.256132       6.0000     15.9994
   62   1 O    8       8.220103    9.825749    6.701897       6.0000     15.9994
   63   1 O    8       9.256690    9.920492    9.273501       6.0000     15.9994
   64   1 O    8      -3.592286    3.217282    1.938437       6.0000     15.9994
   65   2 H    1      -1.750230    3.933140    1.764655       1.0000      1.0079
   66   2 H    1      14.940557    1.371234    5.762434       1.0000      1.0079
   67   2 H    1      11.281576   -1.357874    5.496247       1.0000      1.0079
   68   2 H    1      12.019729   -2.578696    3.416134       1.0000      1.0079
   69   2 H    1      10.645657    4.092544    6.194401       1.0000      1.0079
   70   2 H    1       0.398790    7.464045    9.836671       1.0000      1.0079
   71   2 H    1       6.874108    2.590362   -1.204365       1.0000      1.0079
   72   2 H    1       4.759874    8.733340    5.926996       1.0000      1.0079
   73   2 H    1       2.010449    9.654177    9.913773       1.0000      1.0079
   74   2 H    1       3.210442   10.631958   14.213672       1.0000      1.0079
   75   2 H    1      12.414691    6.174995    4.794324       1.0000      1.0079
   76   2 H    1       3.006093    1.772801   10.977716       1.0000      1.0079
   77   2 H    1       0.850698    2.770810    5.889102       1.0000      1.0079
   78   2 H    1      -2.046725    7.103271   14.854420       1.0000      1.0079
   79   2 H    1       6.730198    1.817397    5.613810       1.0000      1.0079
   80   2 H    1       3.191615    5.263551    5.622862       1.0000      1.0079
   81   2 H    1       0.568425   14.231262   -2.612033       1.0000      1.0079
   82   2 H    1       3.245249   -0.920512    6.606199       1.0000      1.0079
   83   2 H    1       5.523763   -0.072816    8.368200       1.0000      1.0079
   84   2 H    1       3.990617    3.403869    2.428942       1.0000      1.0079
   85   2 H    1       6.194209   10.721021    5.459415       1.0000      1.0079
   86   2 H    1       7.725676    8.092312    2.097052       1.0000      1.0079
   87   2 H    1       2.978180    9.261410   11.457363       1.0000      1.0079
   88   2 H    1       6.156766   12.010472    0.553363       1.0000      1.0079
   89   2 H    1      11.323493    0.624617   10.118507       1.0000      1.0079
   90   2 H    1       4.754060    6.383271    7.246109       1.0000      1.0079
   91   2 H    1       6.251873    3.194571    9.309968       1.0000      1.0079
   92   2 H    1       7.671790   12.366405   10.420383       1.0000      1.0079
   93   2 H    1       8.906112    6.500395   -1.494174       1.0000      1.0079
   94   2 H    1       8.237044    3.791153    8.923882       1.0000      1.0079
   95   2 H    1       2.637952    6.634555    3.260165       1.0000      1.0079
   96   2 H    1      14.900491    0.767897    2.942068       1.0000      1.0079
   97   2 H    1       2.776817    4.469108   -4.352197       1.0000      1.0079
   98   2 H    1      11.951972    4.100363    7.705370       1.0000      1.0079
   99   2 H    1       3.751544    2.777011    7.023899       1.0000      1.0079
  100   2 H    1       9.992274    4.980529   -2.141114       1.0000      1.0079
  101   2 H    1       6.463018    9.010918   11.814383       1.0000      1.0079
  102   2 H    1       3.713294    9.888192    8.115196       1.0000      1.0079
  103   2 H    1      11.771737    9.367413   11.415144       1.0000      1.0079
  104   2 H    1      -0.567156   -0.408732    7.778215       1.0000      1.0079
  105   2 H    1       4.794539    5.189648    4.513297       1.0000      1.0079
  106   2 H    1       5.136143    4.655177   -1.500848       1.0000      1.0079
  107   2 H    1       9.065132    6.524836    5.088314       1.0000      1.0079
  108   2 H    1       8.203373    3.111972    5.067950       1.0000      1.0079
  109   2 H    1       1.935001    6.262324   11.491283       1.0000      1.0079
  110   2 H    1       0.747867   -0.536247   -0.780495       1.0000      1.0079
  111   2 H    1       6.431417    5.261800    5.854093       1.0000      1.0079
  112   2 H    1       7.213573    7.874028    8.484235       1.0000      1.0079
  113   2 H    1       8.639715    2.174163    6.567921       1.0000      1.0079
  114   2 H    1      -1.081120    6.141791   11.160241       1.0000      1.0079
  115   2 H    1       2.614174    4.563561    0.398534       1.0000      1.0079
  116   2 H    1       9.110490    1.088679   13.069169       1.0000      1.0079
  117   2 H    1       8.149978   12.228865    8.671852       1.0000      1.0079
  118   2 H    1       9.179285   10.017161    3.387588       1.0000      1.0079
  119   2 H    1       7.872313   -0.372567    2.163754       1.0000      1.0079
  120   2 H    1       2.889737    1.118693   13.391706       1.0000      1.0079
  121   2 H    1       6.712933    5.135037    1.359531       1.0000      1.0079
  122   2 H    1       6.078674    7.482057    3.632649       1.0000      1.0079
  123   2 H    1      12.837018    8.160684   12.386350       1.0000      1.0079
  124   2 H    1       2.514911   -3.967289    6.342356       1.0000      1.0079
  125   2 H    1       9.797643    6.485012    7.917963       1.0000      1.0079
  126   2 H    1       8.065980    9.914157    7.634622       1.0000      1.0079
  127   2 H    1       9.943199   10.689118    9.325898       1.0000      1.0079
  128   2 H    1       8.870948   14.657779    2.196882       1.0000      1.0079
  129   2 H    1      11.863594    3.813897    0.680323       1.0000      1.0079
  130   2 H    1      14.499850    0.952317    7.025466       1.0000      1.0079
  131   2 H    1      11.083746   -2.688076    5.093754       1.0000      1.0079
  132   2 H    1      12.653941   -1.461209    2.947278       1.0000      1.0079
  133   2 H    1      10.430985    4.284900    4.624217       1.0000      1.0079
  134   2 H    1      -0.875122    7.740389    8.732804       1.0000      1.0079
  135   2 H    1       6.318719   13.864560   -0.012006       1.0000      1.0079
  136   2 H    1       6.348614    8.545862    5.814204       1.0000      1.0079
  137   2 H    1       0.655752   10.349205    9.871323       1.0000      1.0079
  138   2 H    1       2.513555   11.796104   13.471390       1.0000      1.0079
  139   2 H    1      12.480980    7.461715    5.216102       1.0000      1.0079
  140   2 H    1       2.303485   14.107986    9.661060       1.0000      1.0079
  141   2 H    1       0.724148    3.560497    4.732155       1.0000      1.0079
  142   2 H    1      10.510626    7.592744    3.691322       1.0000      1.0079
  143   2 H    1       5.230215    1.309065    5.686537       1.0000      1.0079
  144   2 H    1       2.234154    6.015928    4.695804       1.0000      1.0079
  145   2 H    1       0.414047   15.503990   -3.618820       1.0000      1.0079
  146   2 H    1       2.751664   -1.716470    5.500329       1.0000      1.0079
  147   2 H    1       4.900556   12.080804    9.586191       1.0000      1.0079
  148   2 H    1       5.004648    3.809765    3.111015       1.0000      1.0079
  149   2 H    1       6.754206   12.110825    5.589621       1.0000      1.0079
  150   2 H    1       6.833614    8.996792   14.232091       1.0000      1.0079
  151   2 H    1       1.990903    8.603358   12.436312       1.0000      1.0079
  152   2 H    1       5.177363   10.838895    0.630916       1.0000      1.0079
  153   2 H    1       9.851104    0.391981    9.313500       1.0000      1.0079
  154   2 H    1       3.597680    6.797383    7.966875       1.0000      1.0079
  155   2 H    1       5.309932    2.192277    9.600422       1.0000      1.0079
  156   2 H    1       7.232289   12.141300   11.709433       1.0000      1.0079
  157   2 H    1       9.921285    7.632376   -2.054528       1.0000      1.0079
  158   2 H    1       9.003914    3.253855   10.155313       1.0000      1.0079
  159   2 H    1       1.619017    5.577386    2.905128       1.0000      1.0079
  160   2 H    1      14.246015    1.911615    2.370519       1.0000      1.0079
  161   2 H    1       1.589512    5.567678   -4.080185       1.0000      1.0079
  162   2 H    1      11.079793    2.669497    7.559017       1.0000      1.0079
  163   2 H    1       4.481459    3.407164    8.013230       1.0000      1.0079
  164   2 H    1      11.246450    3.823875   -2.367595       1.0000      1.0079
  165   2 H    1       5.859128    7.634626   11.815947       1.0000      1.0079
  166   2 H    1       4.368512    9.146347    9.336276       1.0000      1.0079
  167   2 H    1      12.205765   10.144137   -0.310426       1.0000      1.0079
  168   2 H    1       0.544337   -1.399384    7.349904       1.0000      1.0079
  169   2 H    1       4.719697    4.001771    5.608911       1.0000      1.0079
  170   2 H    1       4.671471    5.068331   -2.501561       1.0000      1.0079
  171   2 H    1       8.548432    8.280874    5.404155       1.0000      1.0079
  172   2 H    1       9.109424    2.612972    4.062048       1.0000      1.0079
  173   2 H    1       3.267204    6.660788   11.271830       1.0000      1.0079
  174   2 H    1       1.906461    0.218109   -0.819211       1.0000      1.0079
  175   2 H    1       8.129474    5.166115    5.929579       1.0000      1.0079
  176   2 H    1       5.885703    8.670139    8.116572       1.0000      1.0079
  177   2 H    1       8.918514    0.810428    6.712181       1.0000      1.0079
  178   2 H    1      12.480069    5.978762   10.622639       1.0000      1.0079
  179   2 H    1       3.499560    4.884346   14.311534       1.0000      1.0079
  180   2 H    1       9.929033   -0.091952   12.305867       1.0000      1.0079
  181   2 H    1       8.596259   13.624370    8.612193       1.0000      1.0079
  182   2 H    1      10.356551    9.068730    2.690366       1.0000      1.0079
  183   2 H    1       7.371487    1.050960    2.502593       1.0000      1.0079
  184   2 H    1       2.924944    2.357873    0.352113       1.0000      1.0079
  185   2 H    1       6.120768    5.605807    2.558270       1.0000      1.0079
  186   2 H    1       5.080459    6.844730   14.941274       1.0000      1.0079
  187   2 H    1      13.128810    8.937880   13.590674       1.0000      1.0079
  188   2 H    1       2.877053    8.678121    5.152064       1.0000      1.0079
  189   2 H    1      10.061348    7.011764    6.323384       1.0000      1.0079
  190   2 H    1       9.011900    9.244726    6.553508       1.0000      1.0079
  191   2 H    1       9.586515    9.220094    8.631175       1.0000      1.0079
  192   2 H    1       8.059541    3.597688    2.318010       1.0000      1.0079




 SCF PARAMETERS         Density guess:                                    ATOMIC
                        --------------------------------------------------------
                        max_scf:                                              50
                        max_scf_history:                                       0
                        max_diis:                                              4
                        --------------------------------------------------------
                        eps_scf:                                        1.00E-06
                        eps_scf_history:                                0.00E+00
                        eps_diis:                                       1.00E-01
                        eps_eigval:                                     1.00E-05
                        --------------------------------------------------------
                        level_shift [a.u.]:                             0.000000
                        --------------------------------------------------------
                        Outer loop SCF in use 
                        No variables optimised in outer loop
                        eps_scf                                         1.00E-06
                        max_scf                                               10
                        No outer loop optimization
                        step_size                                       5.00E-01

 PW_GRID| Information for grid number                                          1
 PW_GRID| Grid distributed over                                    32 processors
 PW_GRID| Real space group dimensions                                    32    1
 PW_GRID| the grid is blocked:                                                NO
 PW_GRID| Cutoff [a.u.]                                                    600.0
 PW_GRID| spherical cutoff:                                                   NO
 PW_GRID|   Bounds   1           -135     134                Points:         270
 PW_GRID|   Bounds   2           -135     134                Points:         270
 PW_GRID|   Bounds   3           -135     134                Points:         270
 PW_GRID| Volume element (a.u.^3)  0.6576E-03     Volume (a.u.^3)     12944.5155
 PW_GRID| Grid span                                                    FULLSPACE
 PW_GRID|   Distribution                         Average         Max         Min
 PW_GRID|   G-Vectors                           615093.8      615330      615060
 PW_GRID|   G-Rays                                2278.1        2279        2278
 PW_GRID|   Real Space Points                   615093.8      656100      583200

 PW_GRID| Information for grid number                                          2
 PW_GRID| Number of the reference grid                                         1
 PW_GRID| Grid distributed over                                    32 processors
 PW_GRID| Real space group dimensions                                    32    1
 PW_GRID| the grid is blocked:                                                NO
 PW_GRID| Cutoff [a.u.]                                                    200.0
 PW_GRID| spherical cutoff:                                                   NO
 PW_GRID|   Bounds   1            -75      74                Points:         150
 PW_GRID|   Bounds   2            -75      74                Points:         150
 PW_GRID|   Bounds   3            -75      74                Points:         150
 PW_GRID| Volume element (a.u.^3)  0.3835E-02     Volume (a.u.^3)     12944.5155
 PW_GRID| Grid span                                                    FULLSPACE
 PW_GRID|   Distribution                         Average         Max         Min
 PW_GRID|   G-Vectors                           105468.8      105600      105300
 PW_GRID|   G-Rays                                 703.1         704         702
 PW_GRID|   Real Space Points                   105468.8      112500       90000

 PW_GRID| Information for grid number                                          3
 PW_GRID| Number of the reference grid                                         1
 PW_GRID| Grid distributed over                                    32 processors
 PW_GRID| Real space group dimensions                                    32    1
 PW_GRID| the grid is blocked:                                                NO
 PW_GRID| Cutoff [a.u.]                                                     66.7
 PW_GRID| spherical cutoff:                                                   NO
 PW_GRID|   Bounds   1            -45      44                Points:          90
 PW_GRID|   Bounds   2            -45      44                Points:          90
 PW_GRID|   Bounds   3            -45      44                Points:          90
 PW_GRID| Volume element (a.u.^3)  0.1776E-01     Volume (a.u.^3)     12944.5155
 PW_GRID| Grid span                                                    FULLSPACE
 PW_GRID|   Distribution                         Average         Max         Min
 PW_GRID|   G-Vectors                            22781.2       22860       22680
 PW_GRID|   G-Rays                                 253.1         254         252
 PW_GRID|   Real Space Points                    22781.2       24300       16200

 PW_GRID| Information for grid number                                          4
 PW_GRID| Number of the reference grid                                         1
 PW_GRID| Grid distributed over                                    32 processors
 PW_GRID| Real space group dimensions                                    32    1
 PW_GRID| the grid is blocked:                                                NO
 PW_GRID| Cutoff [a.u.]                                                     22.2
 PW_GRID| spherical cutoff:                                                   NO
 PW_GRID|   Bounds   1            -27      26                Points:          54
 PW_GRID|   Bounds   2            -27      26                Points:          54
 PW_GRID|   Bounds   3            -27      26                Points:          54
 PW_GRID| Volume element (a.u.^3)  0.8221E-01     Volume (a.u.^3)     12944.5155
 PW_GRID| Grid span                                                    FULLSPACE
 PW_GRID|   Distribution                         Average         Max         Min
 PW_GRID|   G-Vectors                             4920.8        4968        4860
 PW_GRID|   G-Rays                                  91.1          92          90
 PW_GRID|   Real Space Points                     4920.8        5832        2916

 POISSON| Solver                                                        PERIODIC
 POISSON| Periodicity                                                        XYZ

 RS_GRID| Information for grid number                                          1
 RS_GRID|   Bounds   1           -135     134                Points:         270
 RS_GRID|   Bounds   2           -135     134                Points:         270
 RS_GRID|   Bounds   3           -135     134                Points:         270
 RS_GRID| Real space distribution over                                  2 groups
 RS_GRID| Real space distribution along direction                              1
 RS_GRID| Border size                                                         28
 RS_GRID| Real space distribution over                                  4 groups
 RS_GRID| Real space distribution along direction                              2
 RS_GRID| Border size                                                         28
 RS_GRID| Real space distribution over                                  4 groups
 RS_GRID| Real space distribution along direction                              3
 RS_GRID| Border size                                                         28
 RS_GRID|   Distribution                         Average         Max         Min
 RS_GRID|   Planes                                 191.0         191         191
 RS_GRID|   Distribution                         Average         Max         Min
 RS_GRID|   Planes                                 123.5         124         123
 RS_GRID|   Distribution                         Average         Max         Min
 RS_GRID|   Planes                                 123.5         124         123

 RS_GRID| Information for grid number                                          2
 RS_GRID|   Bounds   1            -75      74                Points:         150
 RS_GRID|   Bounds   2            -75      74                Points:         150
 RS_GRID|   Bounds   3            -75      74                Points:         150
 RS_GRID| Real space distribution over                                  2 groups
 RS_GRID| Real space distribution along direction                              1
 RS_GRID| Border size                                                         29
 RS_GRID| Real space distribution over                                  4 groups
 RS_GRID| Real space distribution along direction                              2
 RS_GRID| Border size                                                         29
 RS_GRID| Real space distribution over                                  4 groups
 RS_GRID| Real space distribution along direction                              3
 RS_GRID| Border size                                                         29
 RS_GRID|   Distribution                         Average         Max         Min
 RS_GRID|   Planes                                 133.0         133         133
 RS_GRID|   Distribution                         Average         Max         Min
 RS_GRID|   Planes                                  95.5          96          95
 RS_GRID|   Distribution                         Average         Max         Min
 RS_GRID|   Planes                                  95.5          96          95

 RS_GRID| Information for grid number                                          3
 RS_GRID|   Bounds   1            -45      44                Points:          90
 RS_GRID|   Bounds   2            -45      44                Points:          90
 RS_GRID|   Bounds   3            -45      44                Points:          90
 RS_GRID| Real space fully replicated
 RS_GRID| Group size                                                           1

 RS_GRID| Information for grid number                                          4
 RS_GRID|   Bounds   1            -27      26                Points:          54
 RS_GRID|   Bounds   2            -27      26                Points:          54
 RS_GRID|   Bounds   3            -27      26                Points:          54
 RS_GRID| Real space fully replicated
 RS_GRID| Group size                                                           1

 MD_PAR| Molecular dynamics protocol (MD input parameters)
 MD_PAR| Ensemble type                                                       NVT
 MD_PAR| Number of time steps                                               1000
 MD_PAR| Time step [fs]                                                 1.000000
 MD_PAR| Temperature [K]                                              500.000000
 MD_PAR| Temperature tolerance [K]                                      0.000000
 MD_PAR| Print MD information every                                    1 step(s)
 MD_PAR| File type   Print frequency [steps]                          File names
 MD_PAR| Coordinates          1                                  WATER-pos-1.xyz
 MD_PAR| Velocities           1                                  WATER-vel-1.xyz
 MD_PAR| Energies             1                                     WATER-1.ener
 MD_PAR| Dump                 1                                  WATER-1.restart

 ROT| Rotational analysis information
 ROT| Principal axes and moments of inertia [a.u.]
 ROT|                           1                   2                   3
 ROT| Eigenvalues      2.54355228232E+08   2.74346430358E+08   2.99854877649E+08
 ROT|      x             -0.122422637332     -0.546233592472     -0.828638377293
 ROT|      y              0.418266173521      0.728757046559     -0.542186845265
 ROT|      z              0.900036724782     -0.412967346827      0.139254674958
 ROT| Number of rotovibrational vectors                                        6

 DOF| Calculation of degrees of freedom
 DOF| Number of atoms                                                        192
 DOF| Number of intramolecular constraints                                     0
 DOF| Number of intermolecular constraints                                     0
 DOF| Invariants (translations + rotations)                                    3
 DOF| Degrees of freedom                                                     573

 DOF| Restraints information
 DOF| Number of intramolecular restraints                                      0
 DOF| Number of intermolecular restraints                                      0

 THERMOSTAT| Thermostat information for PARTICLES
 THERMOSTAT| Type of thermostat                               Nose-Hoover-Chains
 THERMOSTAT| Nose-Hoover-Chain length                                          3
 THERMOSTAT| Nose-Hoover-Chain time constant [fs]                     100.000000
 THERMOSTAT| Order of Yoshida integrator                                       3
 THERMOSTAT| Number of multiple time steps                                     2
 THERMOSTAT| Initial potential energy                        -0.182204180808E+00
 THERMOSTAT| Initial kinetic energy                           0.268363639292E+00
 THERMOSTAT| End of thermostat information for PARTICLES

 MD_VEL| Velocities initialization
 MD_VEL| Initial temperature [K]                                     1972.033463
 MD_VEL| COM velocity             0.0000112030     0.0000091890     0.0000030285

 Number of electrons:                                                        512
 Number of occupied orbitals:                                                256
 Number of molecular orbitals:                                               256

 Number of orbital functions:                                               3648
 Number of independent orbital functions:                                   3648

 Extrapolation method: initial_guess

 Atomic guess: The first density matrix is obtained in terms of atomic orbitals
               and electronic configurations assigned to each atomic kind

 Guess for atomic kind: O

 Electronic structure
    Total number of core electrons                                          2.00
    Total number of valence electrons                                       6.00
    Total number of electrons                                               8.00
    Multiplicity                                                   not specified
    S   [  2.00] 2.00
    P      4.00


 *******************************************************************************
                  Iteration          Convergence                     Energy [au]
 *******************************************************************************
                          1        0.767843                     -15.548688816952
                          2        0.707350                     -15.552890993215
                          3        0.233352E-01                 -15.638471056460
                          4        0.140601E-02                 -15.638569626530
                          5        0.207920E-04                 -15.638569935167
                          6        0.225983E-06                 -15.638569935235

 Energy components [Hartree]           Total Energy ::          -15.638569935235
                                        Band Energy ::           -2.987115028554
                                     Kinetic Energy ::           11.758429345586
                                   Potential Energy ::          -27.396999280821
                                      Virial (-V/T) ::            2.329988000575
                                        Core Energy ::          -26.117692464066
                                          XC Energy ::           -3.153357450913
                                     Coulomb Energy ::           13.632479979744
                       Total Pseudopotential Energy ::          -37.911237681653
                       Local Pseudopotential Energy ::          -39.187422454919
                    Nonlocal Pseudopotential Energy ::            1.276184773266
                                        Confinement ::            0.351158720003

 Orbital energies  State     L     Occupation   Energy[a.u.]          Energy[eV]

                       1     0          2.000      -0.854976          -23.265086

                       1     1          4.000      -0.319291           -8.688341


 Total Electron Density at R=0:                                         0.000001

 Guess for atomic kind: H

 Electronic structure
    Total number of core electrons                                          0.00
    Total number of valence electrons                                       1.00
    Total number of electrons                                               1.00
    Multiplicity                                                   not specified
    S      1.00


 *******************************************************************************
                  Iteration          Convergence                     Energy [au]
 *******************************************************************************
                          1        0.364523E-02                  -0.422484552894
                          2        0.146100E-03                  -0.422490428339
                          3        0.266755E-04                  -0.422490479552
                          4        0.362963E-08                  -0.422490480151

 Energy components [Hartree]           Total Energy ::           -0.422490480151
                                        Band Energy ::           -0.192735382399
                                     Kinetic Energy ::            0.477952443150
                                   Potential Energy ::           -0.900442923301
                                      Virial (-V/T) ::            1.883959243657
                                        Core Energy ::           -0.479166165564
                                          XC Energy ::           -0.248560767922
                                     Coulomb Energy ::            0.305236453335
                       Total Pseudopotential Energy ::           -0.975131099266
                       Local Pseudopotential Energy ::           -0.975131099266
                    Nonlocal Pseudopotential Energy ::            0.000000000000
                                        Confinement ::            0.180124905515

 Orbital energies  State     L     Occupation   Energy[a.u.]          Energy[eV]

                       1     0          1.000      -0.192735           -5.244596


 Total Electron Density at R=0:                                         0.249202
 Re-scaling the density matrix to get the right number of electrons
                  # Electrons              Trace(P)               Scaling factor
                          512               512.000                        1.000


 SCF WAVEFUNCTION OPTIMIZATION

  ----------------------------------- OT ---------------------------------------
  Minimizer      : CG                  : conjugate gradient
  Preconditioner : FULL_SINGLE_INVERSE : inversion of 
                                         H + eS - 2*(Sc)(c^T*H*c+const)(Sc)^T
  Precond_solver : DEFAULT
  Line search    : 2PNT                : 2 energies, one gradient
  stepsize       :    0.08000000                  energy_gap     :    0.08000000
  eps_taylor     :   0.10000E-15                  max_taylor     :             4
  ----------------------------------- OT ---------------------------------------

  Step     Update method      Time    Convergence         Total energy    Change
  ------------------------------------------------------------------------------
     1 OT CG       0.80E-01    4.7     0.02050228     -1048.1896131225 -1.05E+03
     2 OT LS       0.15E+00    3.0                    -1071.3999320054
     3 OT CG       0.15E+00    5.6     0.01606222     -1076.9604764294 -2.88E+01
     4 OT LS       0.11E+00    2.8                    -1088.5710063475
     5 OT CG       0.11E+00    5.0     0.01092933     -1090.5463473306 -1.36E+01
     6 OT LS       0.10E+00    3.4                    -1096.0969948943
     7 OT CG       0.10E+00    5.0     0.00613231     -1096.2022698905 -5.66E+00
     8 OT LS       0.10E+00    3.1                    -1097.9758635854
     9 OT CG       0.10E+00    5.0     0.00400096     -1097.9748196273 -1.77E+00
    10 OT LS       0.12E+00    2.8                    -1098.8230670430
    11 OT CG       0.12E+00    5.4     0.00293141     -1098.8302451807 -8.55E-01
    12 OT LS       0.13E+00    3.1                    -1099.3402814587
    13 OT CG       0.13E+00    5.0     0.00228094     -1099.3416405511 -5.11E-01
    14 OT LS       0.13E+00    3.0                    -1099.6340526237
    15 OT CG       0.13E+00    5.2     0.00163985     -1099.6359841074 -2.94E-01
    16 OT LS       0.13E+00    2.4                    -1099.7966747528
    17 OT CG       0.13E+00    5.9     0.00127214     -1099.7967443851 -1.61E-01
    18 OT LS       0.12E+00    2.8                    -1099.8891551948
    19 OT CG       0.12E+00    5.4     0.00093917     -1099.8893858767 -9.26E-02
    20 OT LS       0.14E+00    3.2                    -1099.9473615724
    21 OT CG       0.14E+00    6.1     0.00072133     -1099.9484729597 -5.91E-02
    22 OT LS       0.13E+00    2.4                    -1099.9798619222
    23 OT CG       0.13E+00    5.4     0.00052944     -1099.9801651371 -3.17E-02
    24 OT LS       0.13E+00    3.1                    -1099.9968074450
    25 OT CG       0.13E+00    6.2     0.00039441     -1099.9968209084 -1.67E-02
    26 OT LS       0.12E+00    3.1                    -1100.0053083910
    27 OT CG       0.12E+00    5.4     0.00029072     -1100.0053648428 -8.54E-03
    28 OT LS       0.13E+00    2.4                    -1100.0105808596
    29 OT CG       0.13E+00    5.3     0.00022333     -1100.0106611564 -5.30E-03
    30 OT LS       0.14E+00    2.8                    -1100.0138058780
[...]
    177       H      2       1.000          0.431                         0.569
    178       H      2       1.000          0.431                         0.569
    179       H      2       1.000          0.424                         0.576
    180       H      2       1.000          0.435                         0.565
    181       H      2       1.000          0.409                         0.591
    182       H      2       1.000          0.399                         0.601
    183       H      2       1.000          0.440                         0.560
    184       H      2       1.000          0.390                         0.610
    185       H      2       1.000          0.389                         0.611
    186       H      2       1.000          0.446                         0.554
    187       H      2       1.000          0.413                         0.587
    188       H      2       1.000          0.394                         0.606
    189       H      2       1.000          0.438                         0.562
    190       H      2       1.000          0.434                         0.566
    191       H      2       1.000          0.428                         0.572
    192       H      2       1.000          0.403                         0.597

  Total Charge                                                            0.001
 !-----------------------------------------------------------------------------!

 ENERGY| Total FORCE_EVAL ( QS ) energy [a.u.]:            -1100.052793313912389

 ATOMIC FORCES in [a.u.]

 # Atom   Kind   Element          X              Y              Z
      1      1      O           0.05180162    -0.02487259    -0.07290073
      2      1      O          -0.07395399    -0.04584306     0.08581372
      3      1      O          -0.00649779    -0.04604602    -0.00454430
      4      1      O          -0.01178257    -0.01236272     0.01790544
      5      1      O          -0.03003372     0.01468193     0.01183232
      6      1      O           0.02988017     0.10274844     0.06244699
      7      1      O           0.08292145     0.01710791     0.01522974
      8      1      O           0.01277352     0.01342335    -0.01621441
      9      1      O           0.06607136    -0.05158623     0.02320207
     10      1      O          -0.08002733     0.01676598     0.08243499
     11      1      O           0.04471176     0.07442101     0.05400843
     12      1      O           0.03989228     0.03829617     0.03797486
     13      1      O          -0.02745534     0.08839540    -0.07117959
     14      1      O          -0.04980275     0.02136777     0.00823665
     15      1      O           0.09465155     0.08408809    -0.00936073
     16      1      O           0.05993061    -0.04801432    -0.03157058
     17      1      O           0.01903170    -0.06611449     0.01431644
     18      1      O          -0.08790591     0.02856273    -0.05246286
     19      1      O          -0.13608833     0.04762267     0.09922213
     20      1      O           0.03605161    -0.06685434     0.03566452
     21      1      O          -0.02867418    -0.08259155    -0.03934367
     22      1      O           0.02677553    -0.06247104    -0.02712206
     23      1      O          -0.10157586    -0.04741322     0.08865435
     24      1      O          -0.01999510    -0.04717227    -0.01420109
     25      1      O          -0.01758508     0.05541309    -0.05253615
     26      1      O          -0.05222000    -0.08168857    -0.04546446
     27      1      O          -0.06440845    -0.05932012    -0.02314611
     28      1      O          -0.00623525    -0.00252014     0.05721614
     29      1      O           0.05390209    -0.00548445    -0.03379334
     30      1      O           0.05528377     0.05271471     0.05906780
     31      1      O           0.02761098    -0.00659915    -0.04770776
     32      1      O           0.02590230    -0.04265654     0.03651397
     33      1      O          -0.02938420     0.06435033     0.04932746
     34      1      O          -0.00784524    -0.06134833     0.03599238
     35      1      O           0.01315139     0.03286271     0.02761313
     36      1      O          -0.01922915     0.04128301    -0.03892351
     37      1      O           0.04587546     0.04271143     0.00684983
     38      1      O           0.03046705    -0.05525483     0.23229463
     39      1      O          -0.00386989     0.05205853    -0.00131974
     40      1      O          -0.03792222     0.03357271     0.04963021
     41      1      O           0.06980429    -0.00267874     0.02414878
     42      1      O          -0.04988431     0.05312122    -0.01763670
     43      1      O           0.03970219     0.09597095    -0.03584981
     44      1      O           0.00989753     0.05758409     0.02312770
     45      1      O           0.04430217    -0.00649737    -0.03296848
     46      1      O          -0.03109288    -0.00484759    -0.11724142
     47      1      O           0.14600582     0.02749399     0.03559495
     48      1      O          -0.06187448     0.06780133    -0.00555875
     49      1      O           0.04426311    -0.02051228    -0.06200442
     50      1      O          -0.03607543    -0.02215770     0.06870765
     51      1      O          -0.00845801    -0.01493369     0.02860860
     52      1      O           0.01088278    -0.10406169    -0.03020125
     53      1      O           0.01073701    -0.04714490    -0.09694403
     54      1      O           0.03621514    -0.04597841    -0.00073044
     55      1      O           0.06960071    -0.07411349    -0.05882426
     56      1      O          -0.01075718     0.26073936    -0.10075292
     57      1      O          -0.01250396    -0.01178975     0.06494810
     58      1      O          -0.11753355    -0.00921087     0.05707435
     59      1      O           0.00156739     0.00834018     0.00073189
     60      1      O           0.08591879    -0.04380829     0.00256601
     61      1      O          -0.04265018    -0.03096244     0.00503133
     62      1      O          -0.02655752     0.00623992     0.03172576
     63      1      O          -0.02239638     0.03376935     0.03871512
     64      1      O          -0.04823700     0.08479307     0.02440381
     65      2      H          -0.05620143     0.00193815     0.01783086
     66      2      H           0.01982945     0.00579839    -0.03131736
     67      2      H          -0.00064170    -0.00718508    -0.01766880
     68      2      H           0.01588155     0.04282882    -0.04256119
     69      2      H          -0.01876459     0.02079278    -0.00554795
     70      2      H          -0.03053123    -0.04995484    -0.06607375
     71      2      H          -0.08827996    -0.00292969     0.01690011
     72      2      H          -0.02118493     0.00357349     0.00308215
     73      2      H          -0.05207742     0.03437473     0.00029626
     74      2      H           0.08509353    -0.02298156    -0.05413658
     75      2      H           0.01496651    -0.05408492    -0.00431562
     76      2      H          -0.02963386    -0.03338430    -0.05012535
     77      2      H           0.05151359    -0.09294444     0.05126949
     78      2      H           0.01961027    -0.00787503    -0.03645689
     79      2      H          -0.02672075    -0.01548462     0.03232943
     80      2      H          -0.03538923     0.04295211     0.05039587
     81      2      H          -0.00509034     0.07738737    -0.04741259
     82      2      H           0.05576964    -0.03126903     0.00146327
     83      2      H           0.10273636    -0.05727461    -0.03491866
     84      2      H           0.01826683     0.02379715     0.01336483
     85      2      H           0.01889155     0.08142785     0.03471329
     86      2      H          -0.05258961     0.07639360    -0.01184360
     87      2      H           0.06962875     0.06018611    -0.08808579
     88      2      H          -0.00176817     0.00378883    -0.02205497
     89      2      H          -0.01198514    -0.04005674     0.05479022
     90      2      H           0.00049456     0.01886536     0.04902440
     91      2      H           0.05152219     0.00226649     0.01201814
     92      2      H           0.00243399    -0.00761888    -0.00410995
     93      2      H          -0.05256173    -0.01265106     0.02940853
     94      2      H          -0.01325211     0.00214509    -0.01725921
     95      2      H          -0.04490409     0.00503031     0.03567092
     96      2      H          -0.04896001     0.05030342    -0.01826041
     97      2      H           0.03850907    -0.01542921    -0.04476261
     98      2      H           0.04423735     0.01978600    -0.00129943
     99      2      H          -0.00808639    -0.02526491    -0.01395524
    100      2      H           0.01840375    -0.01521214     0.04219607
    101      2      H          -0.03149215    -0.02568573     0.01784475
    102      2      H          -0.02851820     0.04827222    -0.21230635
    103      2      H           0.00815104    -0.06030616    -0.02412065
    104      2      H           0.02390908    -0.05312874    -0.04428284
    105      2      H          -0.04229695     0.01212882    -0.01332871
    106      2      H          -0.00189141     0.02589669    -0.03403296
    107      2      H          -0.01826236    -0.14026906     0.01864839
    108      2      H           0.00418684    -0.05983692    -0.03732229
    109      2      H          -0.00947949     0.00465260     0.02691302
    110      2      H           0.01878041     0.01299658     0.03535912
    111      2      H          -0.08567473    -0.02701911    -0.07662508
    112      2      H           0.07392901    -0.06880454     0.02257810
    113      2      H          -0.02897726    -0.01851599     0.05790091
    114      2      H           0.05350771     0.02130485    -0.03238786
    115      2      H           0.00626890     0.01591784    -0.06023204
    116      2      H          -0.03991850     0.02350829     0.02616076
    117      2      H          -0.02728551     0.04952665     0.02375585
    118      2      H          -0.01481476    -0.00169237     0.00052820
    119      2      H          -0.03690433     0.03556583     0.00279752
    120      2      H          -0.06250124    -0.19659201     0.05696410
    121      2      H           0.01151217    -0.00180421     0.02415923
    122      2      H           0.10393886     0.01350331    -0.05389062
    123      2      H          -0.01661089     0.00511040     0.04020920
    124      2      H          -0.03302221    -0.00600101    -0.07471368
    125      2      H           0.02869767     0.01638162     0.01594750
    126      2      H          -0.00625752     0.00398119    -0.04177834
    127      2      H           0.00297406    -0.00868419    -0.02127210
    128      2      H          -0.00515040    -0.07027676    -0.00388586
    129      2      H           0.01192007     0.02732662     0.05474729
    130      2      H           0.05565433     0.02768975    -0.05424686
    131      2      H           0.00521428     0.04862953     0.02875903
    132      2      H           0.00237017    -0.02820510     0.02032435
    133      2      H           0.01812820    -0.00691787    -0.04751162
    134      2      H           0.01646280    -0.04280955    -0.00554771
    135      2      H           0.00826513    -0.01333278    -0.02524583
    136      2      H           0.00618668    -0.01904609    -0.01223226
    137      2      H          -0.00628379     0.01508439    -0.03419065
    138      2      H           0.00821344    -0.00014774    -0.01716668
    139      2      H          -0.04172850    -0.02239442    -0.03364057
    140      2      H          -0.00979703    -0.00825962     0.01749439
    141      2      H          -0.03020346     0.00380754     0.01117070
    142      2      H           0.02703005    -0.00859575     0.00250727
    143      2      H          -0.05840203    -0.09153816    -0.02375651
    144      2      H          -0.02530315     0.01002469    -0.01584667
    145      2      H          -0.01116685     0.00203300     0.03798096
    146      2      H           0.03076874     0.00426853     0.05958286
    147      2      H           0.03348919     0.01691767    -0.06804543
    148      2      H          -0.05427260     0.02734954    -0.05753610
    149      2      H           0.01621643     0.00446495     0.00605560
    150      2      H           0.04139549    -0.00969737     0.03627513
    151      2      H           0.03159879    -0.01759798    -0.00406472
    152      2      H           0.02422512     0.04156461     0.02811734
    153      2      H           0.03169031    -0.01971187    -0.00221933
    154      2      H           0.03189173     0.04541245    -0.00786476
    155      2      H           0.02965867     0.02509966     0.02506958
    156      2      H          -0.00262319    -0.00897525    -0.03067358
    157      2      H          -0.01299805     0.01184543     0.01113988
    158      2      H          -0.04845277    -0.05287558    -0.03884578
    159      2      H           0.00086415     0.00625318     0.02264324
    160      2      H           0.01086984    -0.00318279    -0.01463612
    161      2      H          -0.01138834    -0.05004942     0.00141985
    162      2      H          -0.01190711     0.04198026    -0.00015155
    163      2      H          -0.03534987     0.03543702    -0.03310356
    164      2      H           0.00698590    -0.01794023    -0.00148701
    165      2      H          -0.01707730    -0.01438505    -0.02809242
    166      2      H           0.00262970     0.00550124    -0.01917454
    167      2      H          -0.01140264     0.01416956     0.03090444
    168      2      H           0.00609934     0.02386920    -0.00313048
    169      2      H          -0.01571399    -0.01441189     0.00788687
    170      2      H           0.05994751    -0.07248342     0.05516184
    171      2      H          -0.03988534     0.05014858     0.01343663
    172      2      H          -0.00392644     0.00478372     0.00859152
    173      2      H          -0.02497949     0.00915044     0.00822474
    174      2      H           0.01228870    -0.01169699     0.07782864
    175      2      H          -0.04681592    -0.00049056     0.04467587
    176      2      H          -0.00611749     0.01163331     0.01145571
    177      2      H          -0.01561945     0.02500042     0.00400332
    178      2      H          -0.02355981    -0.00463970    -0.03228524
    179      2      H           0.00810160    -0.00611279     0.01237495
    180      2      H           0.02676280     0.08461665     0.00047294
    181      2      H           0.01514363    -0.00379681     0.05447686
    182      2      H          -0.03482408     0.04705406    -0.00737109
    183      2      H          -0.02994620     0.03935384     0.06457115
    184      2      H           0.06629887    -0.06636411     0.03817793
    185      2      H           0.00304550     0.00546232    -0.08364628
    186      2      H           0.00165084     0.00063417     0.00158880
    187      2      H           0.01768419    -0.01357304    -0.03004366
    188      2      H          -0.06624133     0.03815884     0.06837538
    189      2      H           0.01788356     0.02143027    -0.01706778
    190      2      H           0.02526651     0.00239395     0.00001631
    191      2      H           0.03550031    -0.02957212    -0.01055587
    192      2      H           0.04597011    -0.01399265    -0.03258400
 SUM OF ATOMIC FORCES          -0.00157957     0.00130804     0.00205053     0.00290012

 STRESS| Analytical stress tensor [GPa]
 STRESS|                        x                   y                   z
 STRESS|      x        2.28859436308E-01   5.00283535684E-01  -8.13906483164E-02
 STRESS|      y        5.00283535684E-01  -1.43200211015E+00  -1.15491771721E+00
 STRESS|      z       -8.13906483164E-02  -1.15491771721E+00  -1.32440370789E+00
 STRESS| 1/3 Trace                                            -8.42515460579E-01
 STRESS| Determinant                                           5.63797966181E-01

 STRESS| Eigenvectors and eigenvalues of the analytical stress tensor [GPa]
 STRESS|                        1                   2                   3
 STRESS| Eigenvalues  -2.56863051633E+00  -4.48409507269E-01   4.89493641859E-01
 STRESS|      x          -0.111347151382      0.487303626860      0.866104489729
 STRESS|      y           0.731985126160     -0.549253459118      0.403135724946
 STRESS|      z           0.672160387824      0.678863618775     -0.295541198726

 MD_VEL| Centre of mass motion (COM)
 MD_VEL| VCOM [a.u.]              0.0000110088     0.0000087015     0.0000027681

 MD| ***************************************************************************
 MD| Step number                                                             514
 MD| Time [fs]                                                        514.000000
 MD| Conserved quantity [hartree]                            -0.109814327801E+04
 MD| ---------------------------------------------------------------------------
 MD|                                          Instantaneous             Averages
 MD| CPU time per MD step [s]                    108.774957           178.301633
 MD| Energy drift per atom [K]           0.182420523426E+04   0.896135157445E+03
 MD| Potential energy [hartree]         -0.110005279331E+04  -0.110017892213E+04
 MD| Kinetic energy [hartree]            0.172642498543E+01   0.154724163083E+01
 MD| Temperature [K]                            1902.831560          1705.339201
 MD| Pressure [bar]                      1.773427342365E+04   1.902229558171E+04
 MD| ***************************************************************************
 MD| Estimated peak process memory after this step [MiB]                     644

 Number of electrons:                                                        512
 Number of occupied orbitals:                                                256
 Number of molecular orbitals:                                               256

 Number of orbital functions:                                               3648
 Number of independent orbital functions:                                   3648

 Parameters for the always stable predictor-corrector (ASPC) method:

  ASPC order: 2

  B(1) =   2.800000
  B(2) =  -2.800000
  B(3) =   1.200000
  B(4) =  -0.200000

 Extrapolation method: ASPC


 SCF WAVEFUNCTION OPTIMIZATION

  ----------------------------------- OT ---------------------------------------
  Minimizer      : CG                  : conjugate gradient
  Preconditioner : FULL_SINGLE_INVERSE : inversion of 
                                         H + eS - 2*(Sc)(c^T*H*c+const)(Sc)^T
  Precond_solver : DEFAULT
  Line search    : 2PNT                : 2 energies, one gradient
  stepsize       :    0.08000000                  energy_gap     :    0.08000000
  eps_taylor     :   0.10000E-15                  max_taylor     :             4
  ----------------------------------- OT ---------------------------------------

  Step     Update method      Time    Convergence         Total energy    Change
  ------------------------------------------------------------------------------
     1 OT CG       0.80E-01    4.1     0.00078680     -1100.0449078782 -1.10E+03
     2 OT LS       0.12E+00    3.4                    -1100.0760048891
     3 OT CG       0.12E+00    5.6     0.00047841     -1100.0801642912 -3.53E-02
     4 OT LS       0.83E-01    3.1                    -1100.0870499514
     5 OT CG       0.83E-01    6.1     0.00019917     -1100.0890066778 -8.84E-03
     6 OT LS       0.81E-01    2.5                    -1100.0905069071
     7 OT CG       0.81E-01    5.7     0.00009033     -1100.0905077872 -1.50E-03
     8 OT LS       0.79E-01    2.5                    -1100.0908070769
